# vtk DataFile Version 3.0
vtk output
ASCII
DATASET UNSTRUCTURED_GRID
POINTS 4325 double
5.000000e-06	0.000000e+00	0.0	5.100000e-06	0.000000e+00	0.0	5.260000e-06	0.000000e+00	0.0	5.516000e-06	0.000000e+00	0.0	5.925600e-06	0.000000e+00	0.0	6.580960e-06	0.000000e+00	0.0	7.629536e-06	0.000000e+00	0.0	9.307258e-06	0.000000e+00	0.0	1.199161e-05	0.000000e+00	0.0	1.628658e-05	0.000000e+00	0.0	2.315853e-05	0.000000e+00	0.0	4.377437e-05	0.000000e+00	0.0	6.533896e-05	0.000000e+00	0.0	8.785566e-05	0.000000e+00	0.0	1.113226e-04	0.000000e+00	0.0	1.357324e-04	0.000000e+00	0.0	1.610715e-04	0.000000e+00	0.0	1.873201e-04	0.000000e+00	0.0	2.144517e-04	0.000000e+00	0.0	2.424330e-04	0.000000e+00	0.0	2.712237e-04	0.000000e+00	0.0	3.007766e-04	0.000000e+00	0.0	3.310375e-04	0.000000e+00	0.0	3.619459e-04	0.000000e+00	0.0	3.934348e-04	0.000000e+00	0.0	4.254314e-04	0.000000e+00	0.0	4.578577e-04	0.000000e+00	0.0	4.906314e-04	0.000000e+00	0.0	5.236661e-04	0.000000e+00	0.0	5.568730e-04	0.000000e+00	0.0	5.901611e-04	0.000000e+00	0.0	6.234387e-04	0.000000e+00	0.0	6.566142e-04	0.000000e+00	0.0	6.895969e-04	0.000000e+00	0.0	7.222984e-04	0.000000e+00	0.0	7.550000e-04	0.000000e+00	0.0	7.571388e-04	3.263155e-05	0.0	7.635185e-04	6.470476e-05	0.0	7.740301e-04	9.567086e-05	0.0	7.884936e-04	1.250000e-04	0.0	8.066617e-04	1.521904e-04	0.0	8.282233e-04	1.767767e-04	0.0	8.528096e-04	1.983383e-04	0.0	8.800000e-04	2.165064e-04	0.0	9.093291e-04	2.309699e-04	0.0	9.402952e-04	2.414815e-04	0.0	9.723685e-04	2.478612e-04	0.0	1.005000e-03	2.500000e-04	0.0	1.037632e-03	2.478612e-04	0.0	1.069705e-03	2.414815e-04	0.0	1.100671e-03	2.309699e-04	0.0	1.130000e-03	2.165064e-04	0.0	1.157190e-03	1.983383e-04	0.0	1.181777e-03	1.767767e-04	0.0	1.203338e-03	1.521904e-04	0.0	1.221506e-03	1.250000e-04	0.0	1.235970e-03	9.567086e-05	0.0	1.246481e-03	6.470476e-05	0.0	1.252861e-03	3.263155e-05	0.0	1.255000e-03	0.000000e+00	0.0	1.287702e-03	0.000000e+00	0.0	1.320403e-03	0.000000e+00	0.0	1.353386e-03	0.000000e+00	0.0	1.386561e-03	0.000000e+00	0.0	1.419839e-03	0.000000e+00	0.0	1.453127e-03	0.000000e+00	0.0	1.486334e-03	0.000000e+00	0.0	1.519369e-03	0.000000e+00	0.0	1.552142e-03	0.000000e+00	0.0	1.584569e-03	0.000000e+00	0.0	1.616565e-03	0.000000e+00	0.0	1.648054e-03	0.000000e+00	0.0	1.678962e-03	0.000000e+00	0.0	1.709223e-03	0.000000e+00	0.0	1.738776e-03	0.000000e+00	0.0	1.767567e-03	0.000000e+00	0.0	1.795548e-03	0.000000e+00	0.0	1.822680e-03	0.000000e+00	0.0	1.848929e-03	0.000000e+00	0.0	1.874268e-03	0.000000e+00	0.0	1.898677e-03	0.000000e+00	0.0	1.922144e-03	0.000000e+00	0.0	1.944661e-03	0.000000e+00	0.0	1.966226e-03	0.000000e+00	0.0	1.986841e-03	0.000000e+00	0.0	1.993713e-03	0.000000e+00	0.0	1.998008e-03	0.000000e+00	0.0	2.000693e-03	0.000000e+00	0.0	2.002370e-03	0.000000e+00	0.0	2.003419e-03	0.000000e+00	0.0	2.004074e-03	0.000000e+00	0.0	2.004484e-03	0.000000e+00	0.0	2.004740e-03	0.000000e+00	0.0	2.004900e-03	0.000000e+00	0.0	2.005000e-03	0.000000e+00	0.0	2.004875e-03	1.578624e-05	0.0	2.004502e-03	3.156855e-05	0.0	2.003879e-03	4.734299e-05	0.0	2.003007e-03	6.310563e-05	0.0	2.001886e-03	7.885255e-05	0.0	2.000517e-03	9.457981e-05	0.0	1.998900e-03	1.102835e-04	0.0	1.997035e-03	1.259597e-04	0.0	1.994923e-03	1.416045e-04	0.0	1.992565e-03	1.572140e-04	0.0	1.989960e-03	1.727844e-04	0.0	1.987109e-03	1.883117e-04	0.0	1.984014e-03	2.037920e-04	0.0	1.980675e-03	2.192216e-04	0.0	1.977093e-03	2.345965e-04	0.0	1.973268e-03	2.499130e-04	0.0	1.969202e-03	2.651671e-04	0.0	1.964896e-03	2.803552e-04	0.0	1.960351e-03	2.954734e-04	0.0	1.955567e-03	3.105180e-04	0.0	1.950547e-03	3.254852e-04	0.0	1.945291e-03	3.403713e-04	0.0	1.939801e-03	3.551726e-04	0.0	1.934077e-03	3.698853e-04	0.0	1.928123e-03	3.845058e-04	0.0	1.921938e-03	3.990306e-04	0.0	1.915524e-03	4.134558e-04	0.0	1.908884e-03	4.277781e-04	0.0	1.902018e-03	4.419937e-04	0.0	1.894929e-03	4.560992e-04	0.0	1.887618e-03	4.700910e-04	0.0	1.880087e-03	4.839656e-04	0.0	1.872338e-03	4.977196e-04	0.0	1.864373e-03	5.113496e-04	0.0	1.856193e-03	5.248522e-04	0.0	1.847802e-03	5.382239e-04	0.0	1.839200e-03	5.514615e-04	0.0	1.830391e-03	5.645617e-04	0.0	1.821376e-03	5.775212e-04	0.0	1.812157e-03	5.903367e-04	0.0	1.802737e-03	6.030051e-04	0.0	1.793119e-03	6.155232e-04	0.0	1.783304e-03	6.278880e-04	0.0	1.773295e-03	6.400962e-04	0.0	1.763094e-03	6.521449e-04	0.0	1.752705e-03	6.640311e-04	0.0	1.742129e-03	6.757518e-04	0.0	1.731370e-03	6.873041e-04	0.0	1.720429e-03	6.986851e-04	0.0	1.709311e-03	7.098920e-04	0.0	1.698016e-03	7.209220e-04	0.0	1.686549e-03	7.317723e-04	0.0	1.674912e-03	7.424402e-04	0.0	1.663109e-03	7.529231e-04	0.0	1.651141e-03	7.632183e-04	0.0	1.639012e-03	7.733233e-04	0.0	1.626725e-03	7.832356e-04	0.0	1.614283e-03	7.929527e-04	0.0	1.601689e-03	8.024722e-04	0.0	1.588947e-03	8.117917e-04	0.0	1.576059e-03	8.209089e-04	0.0	1.563029e-03	8.298215e-04	0.0	1.549860e-03	8.385272e-04	0.0	1.536555e-03	8.470240e-04	0.0	1.523117e-03	8.553097e-04	0.0	1.509550e-03	8.633823e-04	0.0	1.495858e-03	8.712396e-04	0.0	1.482043e-03	8.788799e-04	0.0	1.468109e-03	8.863011e-04	0.0	1.454060e-03	8.935014e-04	0.0	1.439899e-03	9.004790e-04	0.0	1.425630e-03	9.072323e-04	0.0	1.411256e-03	9.137594e-04	0.0	1.396780e-03	9.200588e-04	0.0	1.382207e-03	9.261288e-04	0.0	1.367540e-03	9.319681e-04	0.0	1.352783e-03	9.375751e-04	0.0	1.337939e-03	9.429485e-04	0.0	1.323012e-03	9.480868e-04	0.0	1.308005e-03	9.529889e-04	0.0	1.292923e-03	9.576535e-04	0.0	1.277770e-03	9.620794e-04	0.0	1.262548e-03	9.662655e-04	0.0	1.247262e-03	9.702108e-04	0.0	1.231916e-03	9.739143e-04	0.0	1.216513e-03	9.773751e-04	0.0	1.201058e-03	9.805923e-04	0.0	1.185554e-03	9.835651e-04	0.0	1.170004e-03	9.862928e-04	0.0	1.154414e-03	9.887747e-04	0.0	1.138786e-03	9.910102e-04	0.0	1.123125e-03	9.929987e-04	0.0	1.107435e-03	9.947397e-04	0.0	1.091719e-03	9.962328e-04	0.0	1.075981e-03	9.974776e-04	0.0	1.060226e-03	9.984739e-04	0.0	1.044457e-03	9.992213e-04	0.0	1.028678e-03	9.997196e-04	0.0	1.012893e-03	9.999688e-04	0.0	9.971066e-04	9.999688e-04	0.0	9.813219e-04	9.997196e-04	0.0	9.655430e-04	9.992213e-04	0.0	9.497740e-04	9.984739e-04	0.0	9.340187e-04	9.974776e-04	0.0	9.182811e-04	9.962328e-04	0.0	9.025652e-04	9.947397e-04	0.0	8.868747e-04	9.929987e-04	0.0	8.712137e-04	9.910102e-04	0.0	8.555861e-04	9.887747e-04	0.0	8.399956e-04	9.862928e-04	0.0	8.244463e-04	9.835651e-04	0.0	8.089421e-04	9.805923e-04	0.0	7.934866e-04	9.773751e-04	0.0	7.780839e-04	9.739143e-04	0.0	7.627377e-04	9.702108e-04	0.0	7.474519e-04	9.662655e-04	0.0	7.322303e-04	9.620794e-04	0.0	7.170767e-04	9.576535e-04	0.0	7.019948e-04	9.529889e-04	0.0	6.869885e-04	9.480868e-04	0.0	6.720614e-04	9.429485e-04	0.0	6.572172e-04	9.375751e-04	0.0	6.424598e-04	9.319681e-04	0.0	6.277927e-04	9.261288e-04	0.0	6.132196e-04	9.200588e-04	0.0	5.987441e-04	9.137594e-04	0.0	5.843699e-04	9.072323e-04	0.0	5.701006e-04	9.004790e-04	0.0	5.559396e-04	8.935014e-04	0.0	5.418905e-04	8.863011e-04	0.0	5.279569e-04	8.788799e-04	0.0	5.141421e-04	8.712396e-04	0.0	5.004497e-04	8.633823e-04	0.0	4.868830e-04	8.553097e-04	0.0	4.734454e-04	8.470240e-04	0.0	4.601403e-04	8.385272e-04	0.0	4.469710e-04	8.298215e-04	0.0	4.339408e-04	8.209089e-04	0.0	4.210529e-04	8.117917e-04	0.0	4.083105e-04	8.024722e-04	0.0	3.957168e-04	7.929527e-04	0.0	3.832750e-04	7.832356e-04	0.0	3.709882e-04	7.733233e-04	0.0	3.588593e-04	7.632183e-04	0.0	3.468915e-04	7.529231e-04	0.0	3.350876e-04	7.424402e-04	0.0	3.234508e-04	7.317723e-04	0.0	3.119838e-04	7.209220e-04	0.0	3.006895e-04	7.098920e-04	0.0	2.895707e-04	6.986851e-04	0.0	2.786302e-04	6.873041e-04	0.0	2.678708e-04	6.757518e-04	0.0	2.572951e-04	6.640311e-04	0.0	2.469057e-04	6.521449e-04	0.0	2.367052e-04	6.400962e-04	0.0	2.266963e-04	6.278880e-04	0.0	2.168813e-04	6.155232e-04	0.0	2.072627e-04	6.030051e-04	0.0	1.978429e-04	5.903367e-04	0.0	1.886243e-04	5.775212e-04	0.0	1.796091e-04	5.645617e-04	0.0	1.707997e-04	5.514615e-04	0.0	1.621981e-04	5.382239e-04	0.0	1.538066e-04	5.248522e-04	0.0	1.456272e-04	5.113496e-04	0.0	1.376620e-04	4.977196e-04	0.0	1.299130e-04	4.839656e-04	0.0	1.223820e-04	4.700910e-04	0.0	1.150710e-04	4.560992e-04	0.0	1.079818e-04	4.419937e-04	0.0	1.011162e-04	4.277781e-04	0.0	9.447582e-05	4.134558e-04	0.0	8.806237e-05	3.990306e-04	0.0	8.187744e-05	3.845058e-04	0.0	7.592257e-05	3.698853e-04	0.0	7.019924e-05	3.551726e-04	0.0	6.470889e-05	3.403713e-04	0.0	5.945287e-05	3.254852e-04	0.0	5.443251e-05	3.105180e-04	0.0	4.964905e-05	2.954734e-04	0.0	4.510368e-05	2.803552e-04	0.0	4.079754e-05	2.651671e-04	0.0	3.673169e-05	2.499130e-04	0.0	3.290716e-05	2.345965e-04	0.0	2.932490e-05	2.192216e-04	0.0	2.598579e-05	2.037920e-04	0.0	2.289068e-05	1.883117e-04	0.0	2.004033e-05	1.727844e-04	0.0	1.743545e-05	1.572140e-04	0.0	1.507669e-05	1.416045e-04	0.0	1.296464e-05	1.259597e-04	0.0	1.109983e-05	1.102835e-04	0.0	9.482717e-06	9.457981e-05	0.0	8.113710e-06	7.885255e-05	0.0	6.993147e-06	6.310563e-05	0.0	6.121308e-06	4.734299e-05	0.0	5.498411e-06	3.156855e-05	0.0	5.124610e-06	1.578624e-05	0.0	1.901785e-03	4.418788e-04	0.0	1.908649e-03	4.276668e-04	0.0	1.908793e-03	4.277353e-04	0.0	1.901928e-03	4.419495e-04	0.0	1.987682e-03	1.090387e-04	0.0	1.989281e-03	9.351229e-05	0.0	1.993557e-03	9.391852e-05	0.0	1.991951e-03	1.095124e-04	0.0	1.992604e-03	4.680863e-05	0.0	1.996895e-03	4.701198e-05	0.0	1.996029e-03	6.266441e-05	0.0	1.991742e-03	6.239336e-05	0.0	5.758289e-06	3.156034e-05	0.0	6.381025e-06	4.733068e-05	0.0	6.221199e-06	4.733826e-05	0.0	5.598364e-06	3.156539e-05	0.0	7.252637e-06	6.308922e-05	0.0	7.092950e-06	6.309932e-05	0.0	9.741560e-06	9.455522e-05	0.0	1.135825e-05	1.102548e-04	0.0	1.119922e-05	1.102725e-04	0.0	9.582272e-06	9.457035e-05	0.0	1.664177e-05	1.413806e-04	0.0	1.899680e-05	1.569655e-04	0.0	1.834957e-05	1.570685e-04	0.0	1.599299e-05	1.414734e-04	0.0	2.624035e-05	2.037390e-04	0.0	2.957858e-05	2.191646e-04	0.0	2.942247e-05	2.191997e-04	0.0	2.608370e-05	2.037716e-04	0.0	4.766047e-05	2.470922e-04	0.0	4.350166e-05	2.481656e-04	0.0	3.970387e-05	2.329562e-04	0.0	4.387911e-05	2.319486e-04	0.0	4.104824e-05	2.650982e-04	0.0	4.535326e-05	2.802823e-04	0.0	4.519967e-05	2.803272e-04	0.0	4.089396e-0
[...]
POINT_DATA 4325

SCALARS Conservative_1 double 1
LOOKUP_TABLE default
3.902669e+02	3.902676e+02	3.902688e+02	3.902707e+02	3.902737e+02	3.902785e+02	3.902863e+02	3.902987e+02	3.903187e+02	3.903510e+02	3.904033e+02	3.905631e+02	3.907340e+02	3.909171e+02	3.911127e+02	3.913209e+02	3.915424e+02	3.917777e+02	3.920276e+02	3.922928e+02	3.925741e+02	3.928724e+02	3.931887e+02	3.935241e+02	3.938798e+02	3.942573e+02	3.946582e+02	3.950847e+02	3.955390e+02	3.960242e+02	3.965440e+02	3.971033e+02	3.977087e+02	3.983676e+02	3.990931e+02	3.999450e+02	3.999161e+02	3.998741e+02	3.998495e+02	3.998402e+02	3.998437e+02	3.998403e+02	3.998510e+02	3.998464e+02	3.998597e+02	3.998533e+02	3.998567e+02	3.998749e+02	3.998693e+02	3.998837e+02	3.998780e+02	3.998812e+02	3.998935e+02	3.998901e+02	3.998918e+02	3.998951e+02	3.999026e+02	3.999203e+02	3.999473e+02	3.999657e+02	3.994525e+02	3.990184e+02	3.986280e+02	3.982732e+02	3.979493e+02	3.976519e+02	3.973776e+02	3.971234e+02	3.968870e+02	3.966663e+02	3.964596e+02	3.962653e+02	3.960820e+02	3.959086e+02	3.957441e+02	3.955877e+02	3.954384e+02	3.952958e+02	3.951592e+02	3.950282e+02	3.949024e+02	3.947816e+02	3.946658e+02	3.945550e+02	3.944487e+02	3.944133e+02	3.943913e+02	3.943776e+02	3.943690e+02	3.943637e+02	3.943604e+02	3.943583e+02	3.943570e+02	3.943562e+02	3.943557e+02	3.943552e+02	3.943558e+02	3.943585e+02	3.943634e+02	3.943707e+02	3.943802e+02	3.943921e+02	3.944062e+02	3.944225e+02	3.944406e+02	3.944606e+02	3.944821e+02	3.945050e+02	3.945292e+02	3.945544e+02	3.945805e+02	3.946074e+02	3.946348e+02	3.946628e+02	3.946910e+02	3.947195e+02	3.947480e+02	3.947762e+02	3.948041e+02	3.948313e+02	3.948574e+02	3.948822e+02	3.949054e+02	3.949265e+02	3.949453e+02	3.949616e+02	3.949750e+02	3.949856e+02	3.949934e+02	3.949985e+02	3.950011e+02	3.950015e+02	3.950002e+02	3.949975e+02	3.949940e+02	3.949901e+02	3.949863e+02	3.949830e+02	3.949807e+02	3.949797e+02	3.949803e+02	3.949826e+02	3.949866e+02	3.949925e+02	3.949999e+02	3.950085e+02	3.950180e+02	3.950276e+02	3.950366e+02	3.950443e+02	3.950497e+02	3.950520e+02	3.950504e+02	3.950443e+02	3.950330e+02	3.950164e+02	3.949944e+02	3.949672e+02	3.949350e+02	3.948985e+02	3.948583e+02	3.948149e+02	3.947691e+02	3.947214e+02	3.946723e+02	3.946222e+02	3.945713e+02	3.945197e+02	3.944676e+02	3.944149e+02	3.943616e+02	3.943076e+02	3.942529e+02	3.941973e+02	3.941408e+02	3.940835e+02	3.940252e+02	3.939660e+02	3.939060e+02	3.938451e+02	3.937834e+02	3.937211e+02	3.936581e+02	3.935947e+02	3.935308e+02	3.934666e+02	3.934022e+02	3.933377e+02	3.932731e+02	3.932086e+02	3.931443e+02	3.930802e+02	3.930164e+02	3.929529e+02	3.928900e+02	3.928275e+02	3.927656e+02	3.927044e+02	3.926438e+02	3.925839e+02	3.925247e+02	3.924664e+02	3.924088e+02	3.923520e+02	3.922962e+02	3.922411e+02	3.921870e+02	3.921338e+02	3.920814e+02	3.920300e+02	3.919795e+02	3.919299e+02	3.918813e+02	3.918335e+02	3.917867e+02	3.917408e+02	3.916958e+02	3.916517e+02	3.916086e+02	3.915663e+02	3.915249e+02	3.914844e+02	3.914448e+02	3.914061e+02	3.913682e+02	3.913311e+02	3.912949e+02	3.912595e+02	3.912248e+02	3.911910e+02	3.911580e+02	3.911257e+02	3.910942e+02	3.910634e+02	3.910333e+02	3.910040e+02	3.909754e+02	3.909475e+02	3.909202e+02	3.908936e+02	3.908677e+02	3.908425e+02	3.908178e+02	3.907938e+02	3.907705e+02	3.907477e+02	3.907255e+02	3.907039e+02	3.906829e+02	3.906624e+02	3.906425e+02	3.906232e+02	3.906044e+02	3.905861e+02	3.905683e+02	3.905511e+02	3.905344e+02	3.905181e+02	3.905024e+02	3.904872e+02	3.904724e+02	3.904581e+02	3.904444e+02	3.904310e+02	3.904182e+02	3.904058e+02	3.903939e+02	3.903824e+02	3.903714e+02	3.903608e+02	3.903506e+02	3.903409e+02	3.903317e+02	3.903229e+02	3.903145e+02	3.903066e+02	3.902992e+02	3.902922e+02	3.902858e+02	3.902799e+02	3.902746e+02	3.902698e+02	3.902658e+02	3.902624e+02	3.902597e+02	3.902579e+02	3.902568e+02	3.902565e+02	3.902570e+02	3.902581e+02	3.902599e+02	3.902622e+02	3.902649e+02	3.949271e+02	3.949060e+02	3.949056e+02	3.949268e+02	3.944503e+02	3.944390e+02	3.944167e+02	3.944282e+02	3.944176e+02	3.943952e+02	3.944002e+02	3.944226e+02	3.902641e+02	3.902619e+02	3.902606e+02	3.902629e+02	3.902601e+02	3.902589e+02	3.902585e+02	3.902588e+02	3.902576e+02	3.902573e+02	3.902721e+02	3.902748e+02	3.902696e+02	3.902670e+02	3.902766e+02	3.902819e+02	3.902807e+02	3.902753e+02	3.903806e+02	3.903469e+02	3.903405e+02	3.903743e+02	3.903012e+02	3.903086e+02	3.903074e+02	3.902999e+02	3.903153e+02	3.904485e+02	3.904151e+02	3.904050e+02	3.904385e+02	3.903616e+02	3.903514e+02	3.903946e+02	3.903832e+02	3.904599e+02	3.904391e+02	3.904272e+02	3.904480e+02	3.904451e+02	3.904589e+02	3.905189e+02	3.905032e+02	3.907083e+02	3.906551e+02	3.906379e+02	3.906911e+02	3.906220e+02	3.906048e+02	3.905869e+02	3.906051e+02	3.906445e+02	3.906644e+02	3.906632e+02	3.906433e+02	3.907275e+02	3.907497e+02	3.907484e+02	3.907263e+02	3.968709e+02	3.964659e+02	3.966476e+02	3.908697e+02	3.908956e+02	3.908944e+02	3.908685e+02	3.912613e+02	3.911402e+02	3.912370e+02	3.911599e+02	3.911929e+02	3.911917e+02	3.911587e+02	3.912256e+02	3.914950e+02	3.914757e+02	3.914371e+02	3.914564e+02	3.914455e+02	3.914068e+02	3.916052e+02	3.915746e+02	3.915343e+02	3.915651e+02	3.915670e+02	3.916093e+02	3.916524e+02	3.916104e+02	3.916536e+02	3.916976e+02	3.916965e+02	3.917885e+02	3.918353e+02	3.918342e+02	3.917874e+02	3.919575e+02	3.920055e+02	3.919767e+02	3.919284e+02	3.922994e+02	3.923552e+02	3.923536e+02	3.922978e+02	3.924094e+02	3.924669e+02	3.924679e+02	3.925263e+02	3.925253e+02	3.925854e+02	3.926452e+02	3.926443e+02	3.925845e+02	3.928041e+02	3.927893e+02	3.927285e+02	3.927435e+02	3.927058e+02	3.927049e+02	3.928913e+02	3.929543e+02	3.929535e+02	3.928905e+02	3.932110e+02	3.932755e+02	3.932743e+02	3.932098e+02	3.935329e+02	3.935967e+02	3.935957e+02	3.935318e+02	3.940842e+02	3.941416e+02	3.941411e+02	3.940838e+02	3.943793e+02	3.943260e+02	3.943374e+02	3.943904e+02	3.943623e+02	3.944155e+02	3.944152e+02	3.943619e+02	3.945732e+02	3.946240e+02	3.946232e+02	3.945724e+02	3.946227e+02	3.945718e+02	3.947218e+02	3.947695e+02	3.947693e+02	3.947216e+02	3.949351e+02	3.949672e+02	3.950183e+02	3.950350e+02	3.950342e+02	3.950176e+02	3.949945e+02	3.950165e+02	3.950165e+02	3.949945e+02	3.950370e+02	3.950280e+02	3.950278e+02	3.950368e+02	3.950185e+02	3.950091e+02	3.950088e+02	3.950182e+02	3.950216e+02	3.950105e+02	3.950170e+02	3.950274e+02	3.949806e+02	3.949800e+02	3.949805e+02	3.949815e+02	3.949810e+02	3.943926e+02	3.943808e+02	3.944238e+02	3.944076e+02	3.944068e+02	3.944230e+02	3.943935e+02	3.943816e+02	3.944411e+02	3.944618e+02	3.944419e+02	3.944611e+02	3.944575e+02	3.944750e+02	3.944960e+02	3.944789e+02	3.945816e+02	3.945555e+02	3.945548e+02	3.945809e+02	3.946920e+02	3.946637e+02	3.946631e+02	3.946914e+02	3.947488e+02	3.947204e+02	3.947198e+02	3.947483e+02	3.949571e+02	3.949381e+02	3.948959e+02	3.948581e+02	3.948320e+02	3.948315e+02	3.948577e+02	3.949987e+02	3.950013e+02	3.950007e+02	3.949981e+02	3.950013e+02	3.950017e+02	3.949456e+02	3.949524e+02	3.949327e+02	3.949221e+02	3.949424e+02	3.938454e+02	3.939063e+02	3.948584e+02	3.948986e+02	3.907047e+02	3.950156e+02	3.950100e+02	3.950107e+02	3.950166e+02	3.978735e+02	3.982091e+02	3.980506e+02	3.935312e+02	3.935951e+02	3.935219e+02	3.935606e+02	3.937711e+02	3.950500e+02	3.950446e+02	3.950444e+02	3.950498e+02	3.956023e+02	3.957013e+02	3.956162e+02	3.917708e+02	3.919285e+02	3.920134e+02	3.951158e+02	3.950873e+02	3.951183e+02	3.932736e+02	3.932091e+02	3.907712e+02	3.907946e+02	3.949833e+02	3.949861e+02	3.949755e+02	3.949752e+02	3.949858e+02	3.927683e+02	3.930851e+02	3.928691e+02	3.923019e+02	3.923577e+02	3.921049e+02	3.921940e+02	3.919232e+02	3.903032e+02	3.903106e+02	3.928281e+02	3.948049e+02	3.948044e+02	3.964417e+02	3.962846e+02	3.964344e+02	3.918017e+02	3.919171e+02	3.919621e+02	3.919636e+02	3.919134e+02	3.920527e+02	3.920848e+02	3.921371e+02	3.921354e+02	3.920831e+02	3.951090e+02	3.951630e+02	3.951501e+02	3.905562e+02	3.905719e+02	3.905512e+02	3.905355e+02	3.950004e+02	3.949977e+02	3.906849e+02	3.906836e+02	3.949873e+02	3.949833e+02	3.949828e+02	3.949869e+02	3.915494e+02	3.914708e+02	3.931908e+02	3.975561e+02	3.972421e+02	3.973852e+02	3.908432e+02	3.960194e+02	3.957771e+02	3.956877e+02	3.958238e+02	3.959921e+02	3.917554e+02	3.920069e+02	3.918498e+02	3.977189e+02	3.974734e+02	3.973930e+02	3.951109e+02	3.951182e+02	3.951587e+02	3.935863e+02	3.937605e+02	3.950984e+02	3.951276e+02	3.950459e+02	3.933687e+02	3.934324e+02	3.934208e+02	3.933568e+02	3.969914e+02	3.966389e+02	3.968564e+02	3.944631e+02	3.944432e+02	3.946384e+02	3.946111e+02	3.946094e+02	3.946368e+02	3.957566e+02	3.960830e+02	3.958144e+02	3.968157e+02	3.970679e+02	3.969559e+02	3.918945e+02	3.921134e+02	3.921847e+02	3.972397e+02	3.971394e+02	3.975504e+02	3.981388e+02	3.978108e+02	3.950746e+02	3.950779e+02	3.950389e+02	3.912674e+02	3.914226e+02	3.974347e+02	3.971844e+02	3.973306e+02	3.903236e+02	3.903325e+02	3.941939e+02	3.939138e+02	3.938397e+02	3.950953e+02	3.949643e+02	3.949301e+02	3.964864e+02	3.965885e+02	3.962891e+02	3.953878e+02	3.952252e+02	3.952503e+02	3.952285e+02	3.952143e+02	3.953037e+02	3.978532e+02	3.975836e+02	3.976311e+02	3.941980e+02	3.941976e+02	3.960870e+02	3.962712e+02	3.962062e+02	3.931069e+02	3.929992e+02	3.929146e+02	3.910961e+02	3.911276e+02	3.911264e+02	3.910949e+02	3.947892e+02	3.948782e+02	3.948425e+02	3.925471e+02	3.924947e+02	3.926280e+02	3.936585e+02	3.918984e+02	3.905703e+02	3.905881e+02	3.905691e+02	3.902599e+02	3.902618e+02	3.902605e+02	3.902586e+02	3.948825e+02	3.908115e+02	3.907900e+02	3.908428e+02	3.908642e+02	3.926467e+02	3.927073e+02	3.906107e+02	3.906029e+02	3.907322e+02	3.947771e+02	3.947766e+02	3.902866e+02	3.902930e+02	3.950016e+02	3.949990e+02	3.949987e+02	3.995556e+02	3.992696e+02	3.992690e+02	3.986827e+02	3.910052e+02	3.910323e+02	3.909999e+02	3.909728e+02	3.942180e+02	3.942596e+02	3.943226e+02	3.948703e+02	3.948656e+02	3.948235e+02	3.948291e+02	3.950331e+02	3.950331e+02	3.902578e+02	3.950803e+02	3.950497e+02	3.950823e+02	3.949931e+02	3.949927e+02	3.909558e+02	3.909034e+02	3.908795e+02	3.909320e+02	3.908562e+02	3.908235e+02	3.908008e+02	3.908336e+02	3.906239e+02	3.949837e+02	3.942837e+02	3.943029e+02	3.943560e+02	3.947327e+02	3.946848e+02	3.946926e+02	3.947398e+02	3.914499e+02	3.914187e+02	3.913819e+02	3.914131e+02	3.909802e+02	3.910746e+02	3.943720e+02	3.943712e+02	3.904350e+02	3.904483e+02	3.904464e+02	3.904330e+02	3.930814e+02	3.931455e+02	3.931447e+02	3.930806e+02	3.949352e+02	3.949673e+02	3.902719e+02	3.902706e+02	3.903036e+02	3.902996e+02	3.903207e+02	3.903247e+02	3.944845e+02	3.944833e+02	3.934033e+02	3.934677e+02	3.934670e+02	3.934026e+02	3.950445e+02	3.950508e+02	3.950506e+02	3.950444e+02	3.910855e+02	3.910654e+02	3.910362e+02	3.910563e+02	3.947062e+02	3.946812e+02	3.946532e+02	3.946791e+02	3.903721e+02	3.903628e+02	3.903734e+02	3.904601e+02	3.904744e+02	3.904732e+02	3.903165e+02	3.903249e+02	3.937838e+02	3.937214e+02	3.921344e+02	3.920821e+02	3.904066e+02	3.904190e+02	3.945297e+02	3.945132e+02	3.902632e+02	3.902665e+02	3.902644e+02	3.902678e+02	3.955115e+02	3.954309e+02	3.955800e+02	3.941176e+02	3.940604e+02	3.940823e+02	3.941387e+02	3.939292e+02	3.939885e+02	3.939798e+02	3.939202e+02	3.919802e+02	3.920307e+02	3.919317e+02	3.919812e+02	3.919306e+02	3.914467e+02	3.914863e+02	3.914852e+02	3.950521e+02	3.950554e+02	3.950583e+02	3.950558e+02	3.950534e+02	3.909761e+02	3.910048e+02	3.909494e+02	3.909773e+02	3.909482e+02	3.944146e+02	3.943922e+02	3.927671e+02	3.927662e+02	3.904736e+02	3.904827e+02	3.904288e+02	3.904196e+02	3.950733e+02	3.951234e+02	3.950872e+02	3.905519e+02	3.905364e+02	3.905531e+02	3.905351e+02	3.927082e+02	3.926836e+02	3.926244e+02	3.926494e+02	3.904892e+02	3.905044e+02	3.904879e+02	3.908198e+02	3.908444e+02	3.908186e+02	3.949891e+02	3.949761e+02	3.949704e+02	3.949836e+02	3.904318e+02	3.913701e+02	3.914079e+02	3.913689e+02	3.946725e+02	3.946728e+02	3.946224e+02	3.912267e+02	3.915268e+02	3.915681e+02	3.915256e+02	3.945950e+02	3.945449e+02	3.945605e+02	3.946098e+02	3.945370e+02	3.945603e+02	3.945794e+02	3.945567e+02	3.902878e+02	3.942536e+02	3.942531e+02	3.913330e+02	3.913318e+02	3.948151e+02	3.943639e+02	3.907724e+02	3.907958e+02	3.950005e+02	3.950001e+02	3.903685e+02	3.903347e+02	3.903294e+02	3.903632e+02	3.945296e+02	3.945055e+02	3.947054e+02	3.946581e+02	3.947120e+02	3.924104e+02	3.923527e+02	3.943590e+02	3.906615e+02	3.905308e+02	3.906667e+02	3.910641e+02	3.949810e+02	3.946329e+02	3.946100e+02	3.946032e+02	3.930177e+02	3.930169e+02	3.949936e+02	3.918819e+02	3.943079e+02	3.950443e+02	3.911261e+02	3.911575e+02	3.911451e+02	3.911137e+02	3.910353e+02	3.910653e+02	3.910341e+02	3.938460e+02	3.939068e+02	3.948829e+02	3.945846e+02	3.946098e+02	3.946278e+02	3.903417e+02	3.918830e+02	3.939663e+02	3.940255e+02	3.949459e+02	3.929863e+02	3.929497e+02	3.928885e+02	3.929258e+02	3.950892e+02	3.950905e+02	3.950712e+02	3.944826e+02	3.909210e+02	3.943948e+02	3.943829e+02	3.950241e+02	3.950139e+02	3.950111e+02	3.950217e+02	3.946358e+02	3.945859e+02	3.946443e+02	3.944678e+02	3.945200e+02	3.913064e+02	3.913426e+02	3.913378e+02	3.913016e+02	3.905201e+02	3.950505e+02	3.904723e+02	3.904933e+02	3.905056e+02	3.946800e+02	3.946305e+02	3.945715e+02	3.949618e+02	3.943571e+02	3.943565e+02	3.943557e+02	3.943563e+02	3.922968e+02	3.906728e+02	3.906397e+02	3.949942e+02	3.929269e+02	3.928652e+02	3.950119e+02	3.950112e+02	3.950303e+02	3.950308e+02	3.943100e+02	3.943639e+02	3.943629e+02	3.943090e+02	3.917415e+02	3.913421e+02	3.913077e+02	3.913585e+02	3.913926e+02	3.926904e+02	3.927455e+02	3.926320e+02	3.906252e+02	3.949865e+02	3.933381e+02	3.902942e+02	3.911948e+02	3.912286e+02	3.932617e+02	3.933248e+02	3.933051e+02	3.932414e+02	3.950662e+02	3.950613e+02	3.950484e+02	3.950547e+02	3.932943e+02	3.933565e+02	3.902657e+02	3.937220e+02	3.937843e+02	3.922590e+02	3.923123e+02	3.922852e+02	3.922316e+02	3.921876e+02	3.913719e+02	3.914098e+02	3.912968e+02	3.912956e+02	3.940850e+02	3.941423e+02	3.909513e+02	3.909792e+02	3.946357e+02	3.946352e+02	3.946078e+02	3.939668e+02	3.940260e+02	3.928289e+02	3.949938e+02	3.949880e+02	3.950522e+02	3.921887e+02	3.931780e+02	3.931147e+02	3.931360e+02	3.931987e+02	3.907059e+02	3.903430e+02	3.903527e+02	3.903337e+02	3.906664e+02	3.906868e+02	3.949870e+02	3.944682e+02	3.945203e+02	3.949621e+02	3.949946e+02	3.906063e+02	3.949903e+02	3.949907e+02	3.918187e+02	3.917890e+02	3.917443e+02	3.917742e+02	3.920317e+02	3.912602e+02	3.948586e+02	3.948988e+02	3.949400e+02	3.949045e+02	3.949086e+02	3.949434e+02	3.944320e+02	3.944426e+02	3.916553e+02	3.916994e+02	3.902642e+02	3.902637e+02	3.902605e+02	3.902610e+02	3.943648e+02	3.943598e+02	3.945303e+02	3.945062e+02	3.936591e+02	3.922418e+02	3.922428e+02	3.949277e+02	3.949066e+02	3.904202e+02	3.903844e+02	3.903959e+02	3.903480e+02	3.903350e+02	3.903271e+02	3.903402e+02	3.933388e+02	3.903467e+02	3.903455e+02	3.903122e+02	3.903136e+02	3.917426e+02	3.946084e+02	3.909222e+02	3.936666e+02	3.937278e+02	3.937012e+02	3.936392e+02	3.936641e+02	3.936009e+02	3.936050e+02	3.936681e+02	3.908217e+02	3.908464e+02	3.949803e+02	3.949669e+02	3.949648e+02	3.949782e+02	3.904764e+02	3.904911e+02	3.948056e+02	3.947779e+02	3.944304e+02	3.944143e+02	3.944110e+02	3.944271e+02	3.904078e+02	3.948931e+02	3.948689e+02	3.948644e+02	3.948889e+02	3.949939e+02	3.910059e+02	3.905221e+02	3.905383e+02	3.950021e+02	3.914485e+02	3.914881e+02	3.948152e+02	3.904784e+02	3.904927e+02	3.904846e+02	3.904703e+02	3.902661e+02	3.902638e+02	3.902669e+02	3.912742e+02	3.912761e+02	3.912425e+02	3.912614e+02	3.947497e+02	3.947213e+02	3.948069e+02	3.947792e+02	3.948327e+02	3.948588e+02	3.948835e+02	3.949286e+02	3.949076e+02	3.949464e+02	3.949626e+02	3.949760e+02	3.949866e+02	3.949944e+02	3.949995e+02	3.950021e+02	3.950026e+02	3.949996e+02	3.950022e+02	3.949952e+02	3.949914e+02	3.949876e+02	3.949844e+02	3.949822e+02	3.949812e+02	3.949817e+02	3.949840e+02	3.949949e+02	3.949891e+02	3.950011e+02	3.950097e+02	3.950190e+02	3.950285e+02	3.950374e+02	3.950450e+02	3.950503e+02	3.950525e+02	3.950447e+02	3.950510e+02	3.950332e+02	3.950166e+02	3.949947e+02	3.949674e+02	3.949354e+02	3.948990e+02	3.948588e+02	3.947698e+02	3.948156e+02	3.947222e+02	3.946732e+02	3.945746e+02	3.946253e+02	3.944688e+02	3.945209e+02	3.944162e+02	3.943083e+02	3.943117e+02	3.943656e+02	3.941987e+02	3.942542e+02	3.940862e+02	3.941435e+02	3.940268e+02	3.939677e+02	3.939077e+02	3.938468e+02	3.937852e+02	3.937230e+02	3.936601e+02	3.935345e+02	3.935983e+02	3.934688e+02	3.934044e+02	3.933399e+02	3.932129e+02	3.932773e+02	3.931467e+02	3.930827e+02	3.930190e+02	3.929556e+02	3.928927e+02	3.928303e+02	3.927685e+02	3.926490e+02	3.927095e+02	3.925869e+02	3.925278e+02	3.924694e+02	3.924119e+02	3.923060e+02	3.923618e+02	3.921903e+02	3.922444e+02	3.920874e+02	3.921397e+02	3.920334e+02	3.919829e+02	3.919334e+02	3.918847e+02	3.918370e+02	3.917902e+02	3.917443e+02	3.916582e+02	3.917022e+02	3.916122e+02	3.915699e+02	3.915286e+02	3.914515e+02	3.914910e+02	3.913749e+02	3.914127e+02	3.913349e+02	3.912986e+02	3.913140e+02	3.913502e+02	3.912632e+02	3.911978e+02	3.912316e+02	3.911618e+02	3.911295e+02	3.910980e+02	3.910672e+02	3.910372e+02	3.910079e+02	3.909544e+02	3.909823e+02	3.909241e+02	3.908975e+02	3.908716e+02	3.908248e+02	3.908494e+02	3.907977e+02	3.907744e+02	3.907516e+02	3.907294e+02	3.907078e+02	3.906695e+02	3.906899e+02	3.906465e+02	3.906271e+02	3.906083e+02	3.905900e+02	3.905723e+02	3.905550e+02	3.905252e+02	3.905415e+02	3.905064e+02	3.904795e+02	3.904943e+02	3.904621e+02	3.904382e+02	3.904515e+02	3.904222e+02	3.904098e+02	3.903979e+02	3.903864e+02	3.903754e+02	3.903648e+02	3.903546e+02	3.903449e+02	3.903357e+02	3.903269e+02	3.903185e+02	3.903064e+02	3.903138e+02	3.902962e+02	3.902898e+02	3.902839e+02	3.902786e+02	3.902739e+02	3.902698e+02	3.902664e+02	3.902638e+02	3.902619e+02	3.902608e+02	3.902590e+02	3.902692e+02	3.902688e+02	3.902621e+02	3.902692e+02	3.902670e+02	3.902688e+02	3.943585e+02	3.943578e+02	3.943612e+02	3.943661e+02	3.943734e+02	3.943969e+02	3.943851e+02	3.944089e+02	3.944251e+02	3.944650e+02	3.944452e+02	3.944865e+02	3.945074e+02	3.945315e+02	3.945566e+02	3.945827e+02	3.946358e+02	3.946410e+02	3.946138e+02	3.946929e+02	3.946647e+02	3.947510e+02	3.947227e+02	3.948088e+02	3.947812e+02	3.948339e+02	3.948599e+02	3.948846e+02	3.949301e+02	3.949091e+02	3.949473e+02	3.949634e+02	3.949769e+02	3.949874e+02	3.949952e+02	3.950003e+02	3.950030e+02	3.950035e+02	3.950012e+02	3.950037e+02	3.949962e+02	3.949924e+02	3.949887e+02	3.949856e+02	3.949833e+02	3.949823e+02	3.949829e+02	3.949851e+02	3.949966e+02	3.949909e+02	3.950021e+02	3.950106e+02	3.950199e+02	3.950293e+02	3.950381e+02	3.950455e+02	3.950507e+02	3.950528e+02	3.950451e+02	3.950515e+02	3.950334e+02	3.950168e+02	3.949948e+02	3.949677e+02	3.949356e+02	3.948993e+02	3.948592e+02	3.947704e+02	3.948160e+02	3.947229e+02	3.946740e+02	3.945767e+02	3.946273e+02	3.944698e+02	3.945218e+02	3.944172e+02	3.943145e+02	3.943682e+02	3.941999e+02	3.942554e+02	3.940882e+02	3.941454e+02	3.940281e+02	3.939690e+02	3.939090e+02	3.938482e+02	3.937867e+02	3.937245e+02	3.936616e+02	3.935372e+02	3.934705e+02	3.934062e+02	3.933418e+02	3.932160e+02	3.932803e+02	3.931487e+02	3.930847e+02	3.930210e+02	3.929577e+02	3.928949e+02	3.928325e+02	3.927707e+02	3.926528e+02	3.927132e+02	3.925892e+02	3.925302e+02	3.924719e+02	3.924144e+02	3.923125e+02	3.923682e+02	3.921929e+02	3.922470e+02	3.920917e+02	3.921439e+02	3.920361e+02	3.919856e+02	3.919361e+02	3.918875e+02	3.918398e+02	3.917930e+02	3.917472e+02	3.916628e+02	3.917068e+02	3.916151e+02	3.915728e+02	3.915315e+02	3.914562e+02	3.914957e+02	3.913796e+02	3.914174e+02	3.913262e+02	3.913624e+02	3.912662e+02	3.912026e+02	3.912364e+02	3.911648e+02	3.911325e+02	3.911010e+02	3.910703e+02	3.910402e+02	3.910109e+02	3.909593e+02	3.909872e+02	3.909272e+02	3.909006e+02	3.908747e+02	3.908298e+02	3.908544e+02	3.908008e+02	3.907775e+02	3.907547e+02	3.907325e+02	3.907109e+02	3.906745e+02	3.906949e+02	3.906496e+02	3.906302e+02	3.906114e+02	3.905932e+02	3.905754e+02	3.905582e+02	3.905303e+02	3.905465e+02	3.905095e+02	3.904993e+02	3.904653e+02	3.904432e+02	3.904565e+02	3.904253e+02	3.904129e+02	3.904010e+02	3.903896e+02	3.903785e+02	3