# vtk DataFile Version 3.0
vtk output
ASCII
DATASET UNSTRUCTURED_GRID
POINTS 200 double
5.000000e-06	0.000000e+00	0.0	2.005000e-03	0.000000e+00	0.0	2.004875e-03	1.578624e-05	0.0	2.004502e-03	3.156855e-05	0.0	2.003879e-03	4.734299e-05	0.0	2.003007e-03	6.310563e-05	0.0	2.001886e-03	7.885255e-05	0.0	2.000517e-03	9.457981e-05	0.0	1.998900e-03	1.102835e-04	0.0	1.997035e-03	1.259597e-04	0.0	1.994923e-03	1.416045e-04	0.0	1.992565e-03	1.572140e-04	0.0	1.989960e-03	1.727844e-04	0.0	1.987109e-03	1.883117e-04	0.0	1.984014e-03	2.037920e-04	0.0	1.980675e-03	2.192216e-04	0.0	1.977093e-03	2.345965e-04	0.0	1.973268e-03	2.499130e-04	0.0	1.969202e-03	2.651671e-04	0.0	1.964896e-03	2.803552e-04	0.0	1.960351e-03	2.954734e-04	0.0	1.955567e-03	3.105180e-04	0.0	1.950547e-03	3.254852e-04	0.0	1.945291e-03	3.403713e-04	0.0	1.939801e-03	3.551726e-04	0.0	1.934077e-03	3.698853e-04	0.0	1.928123e-03	3.845058e-04	0.0	1.921938e-03	3.990306e-04	0.0	1.915524e-03	4.134558e-04	0.0	1.908884e-03	4.277781e-04	0.0	1.902018e-03	4.419937e-04	0.0	1.894929e-03	4.560992e-04	0.0	1.887618e-03	4.700910e-04	0.0	1.880087e-03	4.839656e-04	0.0	1.872338e-03	4.977196e-04	0.0	1.864373e-03	5.113496e-04	0.0	1.856193e-03	5.248522e-04	0.0	1.847802e-03	5.382239e-04	0.0	1.839200e-03	5.514615e-04	0.0	1.830391e-03	5.645617e-04	0.0	1.821376e-03	5.775212e-04	0.0	1.812157e-03	5.903367e-04	0.0	1.802737e-03	6.030051e-04	0.0	1.793119e-03	6.155232e-04	0.0	1.783304e-03	6.278880e-04	0.0	1.773295e-03	6.400962e-04	0.0	1.763094e-03	6.521449e-04	0.0	1.752705e-03	6.640311e-04	0.0	1.742129e-03	6.757518e-04	0.0	1.731370e-03	6.873041e-04	0.0	1.720429e-03	6.986851e-04	0.0	1.709311e-03	7.098920e-04	0.0	1.698016e-03	7.209220e-04	0.0	1.686549e-03	7.317723e-04	0.0	1.674912e-03	7.424402e-04	0.0	1.663109e-03	7.529231e-04	0.0	1.651141e-03	7.632183e-04	0.0	1.639012e-03	7.733233e-04	0.0	1.626725e-03	7.832356e-04	0.0	1.614283e-03	7.929527e-04	0.0	1.601689e-03	8.024722e-04	0.0	1.588947e-03	8.117917e-04	0.0	1.576059e-03	8.209089e-04	0.0	1.563029e-03	8.298215e-04	0.0	1.549860e-03	8.385272e-04	0.0	1.536555e-03	8.470240e-04	0.0	1.523117e-03	8.553097e-04	0.0	1.509550e-03	8.633823e-04	0.0	1.495858e-03	8.712396e-04	0.0	1.482043e-03	8.788799e-04	0.0	1.468109e-03	8.863011e-04	0.0	1.454060e-03	8.935014e-04	0.0	1.439899e-03	9.004790e-04	0.0	1.425630e-03	9.072323e-04	0.0	1.411256e-03	9.137594e-04	0.0	1.396780e-03	9.200588e-04	0.0	1.382207e-03	9.261288e-04	0.0	1.367540e-03	9.319681e-04	0.0	1.352783e-03	9.375751e-04	0.0	1.337939e-03	9.429485e-04	0.0	1.323012e-03	9.480868e-04	0.0	1.308005e-03	9.529889e-04	0.0	1.292923e-03	9.576535e-04	0.0	1.277770e-03	9.620794e-04	0.0	1.262548e-03	9.662655e-04	0.0	1.247262e-03	9.702108e-04	0.0	1.231916e-03	9.739143e-04	0.0	1.216513e-03	9.773751e-04	0.0	1.201058e-03	9.805923e-04	0.0	1.185554e-03	9.835651e-04	0.0	1.170004e-03	9.862928e-04	0.0	1.154414e-03	9.887747e-04	0.0	1.138786e-03	9.910102e-04	0.0	1.123125e-03	9.929987e-04	0.0	1.107435e-03	9.947397e-04	0.0	1.091719e-03	9.962328e-04	0.0	1.075981e-03	9.974776e-04	0.0	1.060226e-03	9.984739e-04	0.0	1.044457e-03	9.992213e-04	0.0	1.028678e-03	9.997196e-04	0.0	1.012893e-03	9.999688e-04	0.0	9.971066e-04	9.999688e-04	0.0	9.813219e-04	9.997196e-04	0.0	9.655430e-04	9.992213e-04	0.0	9.497740e-04	9.984739e-04	0.0	9.340187e-04	9.974776e-04	0.0	9.182811e-04	9.962328e-04	0.0	9.025652e-04	9.947397e-04	0.0	8.868747e-04	9.929987e-04	0.0	8.712137e-04	9.910102e-04	0.0	8.555861e-04	9.887747e-04	0.0	8.399956e-04	9.862928e-04	0.0	8.244463e-04	9.835651e-04	0.0	8.089421e-04	9.805923e-04	0.0	7.934866e-04	9.773751e-04	0.0	7.780839e-04	9.739143e-04	0.0	7.627377e-04	9.702108e-04	0.0	7.474519e-04	9.662655e-04	0.0	7.322303e-04	9.620794e-04	0.0	7.170767e-04	9.576535e-04	0.0	7.019948e-04	9.529889e-04	0.0	6.869885e-04	9.480868e-04	0.0	6.720614e-04	9.429485e-04	0.0	6.572172e-04	9.375751e-04	0.0	6.424598e-04	9.319681e-04	0.0	6.277927e-04	9.261288e-04	0.0	6.132196e-04	9.200588e-04	0.0	5.987441e-04	9.137594e-04	0.0	5.843699e-04	9.072323e-04	0.0	5.701006e-04	9.004790e-04	0.0	5.559396e-04	8.935014e-04	0.0	5.418905e-04	8.863011e-04	0.0	5.279569e-04	8.788799e-04	0.0	5.141421e-04	8.712396e-04	0.0	5.004497e-04	8.633823e-04	0.0	4.868830e-04	8.553097e-04	0.0	4.734454e-04	8.470240e-04	0.0	4.601403e-04	8.385272e-04	0.0	4.469710e-04	8.298215e-04	0.0	4.339408e-04	8.209089e-04	0.0	4.210529e-04	8.117917e-04	0.0	4.083105e-04	8.024722e-04	0.0	3.957168e-04	7.929527e-04	0.0	3.832750e-04	7.832356e-04	0.0	3.709882e-04	7.733233e-04	0.0	3.588593e-04	7.632183e-04	0.0	3.468915e-04	7.529231e-04	0.0	3.350876e-04	7.424402e-04	0.0	3.234508e-04	7.317723e-04	0.0	3.119838e-04	7.209220e-04	0.0	3.006895e-04	7.098920e-04	0.0	2.895707e-04	6.986851e-04	0.0	2.786302e-04	6.873041e-04	0.0	2.678708e-04	6.757518e-04	0.0	2.572951e-04	6.640311e-04	0.0	2.469057e-04	6.521449e-04	0.0	2.367052e-04	6.400962e-04	0.0	2.266963e-04	6.278880e-04	0.0	2.168813e-04	6.155232e-04	0.0	2.072627e-04	6.030051e-04	0.0	1.978429e-04	5.903367e-04	0.0	1.886243e-04	5.775212e-04	0.0	1.796091e-04	5.645617e-04	0.0	1.707997e-04	5.514615e-04	0.0	1.621981e-04	5.382239e-04	0.0	1.538066e-04	5.248522e-04	0.0	1.456272e-04	5.113496e-04	0.0	1.376620e-04	4.977196e-04	0.0	1.299130e-04	4.839656e-04	0.0	1.223820e-04	4.700910e-04	0.0	1.150710e-04	4.560992e-04	0.0	1.079818e-04	4.419937e-04	0.0	1.011162e-04	4.277781e-04	0.0	9.447582e-05	4.134558e-04	0.0	8.806237e-05	3.990306e-04	0.0	8.187744e-05	3.845058e-04	0.0	7.592257e-05	3.698853e-04	0.0	7.019924e-05	3.551726e-04	0.0	6.470889e-05	3.403713e-04	0.0	5.945287e-05	3.254852e-04	0.0	5.443251e-05	3.105180e-04	0.0	4.964905e-05	2.954734e-04	0.0	4.510368e-05	2.803552e-04	0.0	4.079754e-05	2.651671e-04	0.0	3.673169e-05	2.499130e-04	0.0	3.290716e-05	2.345965e-04	0.0	2.932490e-05	2.192216e-04	0.0	2.598579e-05	2.037920e-04	0.0	2.289068e-05	1.883117e-04	0.0	2.004033e-05	1.727844e-04	0.0	1.743545e-05	1.572140e-04	0.0	1.507669e-05	1.416045e-04	0.0	1.296464e-05	1.259597e-04	0.0	1.109983e-05	1.102835e-04	0.0	9.482717e-06	9.457981e-05	0.0	8.113710e-06	7.885255e-05	0.0	6.993147e-06	6.310563e-05	0.0	6.121308e-06	4.734299e-05	0.0	5.498411e-06	3.156855e-05	0.0	5.124610e-06	1.578624e-05	0.0	
CELLS 199	597
2	1	2	2	2	3	2	3	4	2	4	5	2	5	6	2	6	7	2	7	8	2	8	9	2	9	10	2	10	11	2	11	12	2	12	13	2	13	14	2	14	15	2	15	16	2	16	17	2	17	18	2	18	19	2	19	20	2	20	21	2	21	22	2	22	23	2	23	24	2	24	25	2	25	26	2	26	27	2	27	28	2	28	29	2	29	30	2	30	31	2	31	32	2	32	33	2	33	34	2	34	35	2	35	36	2	36	37	2	37	38	2	38	39	2	39	40	2	40	41	2	41	42	2	42	43	2	43	44	2	44	45	2	45	46	2	46	47	2	47	48	2	48	49	2	49	50	2	50	51	2	51	52	2	52	53	2	53	54	2	54	55	2	55	56	2	56	57	2	57	58	2	58	59	2	59	60	2	60	61	2	61	62	2	62	63	2	63	64	2	64	65	2	65	66	2	66	67	2	67	68	2	68	69	2	69	70	2	70	71	2	71	72	2	72	73	2	73	74	2	74	75	2	75	76	2	76	77	2	77	78	2	78	79	2	79	80	2	80	81	2	81	82	2	82	83	2	83	84	2	84	85	2	85	86	2	86	87	2	87	88	2	88	89	2	89	90	2	90	91	2	91	92	2	92	93	2	93	94	2	94	95	2	95	96	2	96	97	2	97	98	2	98	99	2	99	100	2	100	101	2	101	102	2	102	103	2	103	104	2	104	105	2	105	106	2	106	107	2	107	108	2	108	109	2	109	110	2	110	111	2	111	112	2	112	113	2	113	114	2	114	115	2	115	116	2	116	117	2	117	118	2	118	119	2	119	120	2	120	121	2	121	122	2	122	123	2	123	124	2	124	125	2	125	126	2	126	127	2	127	128	2	128	129	2	129	130	2	130	131	2	131	132	2	132	133	2	133	134	2	134	135	2	135	136	2	136	137	2	137	138	2	138	139	2	139	140	2	140	141	2	141	142	2	142	143	2	143	144	2	144	145	2	145	146	2	146	147	2	147	148	2	148	149	2	149	150	2	150	151	2	151	152	2	152	153	2	153	154	2	154	155	2	155	156	2	156	157	2	157	158	2	158	159	2	159	160	2	160	161	2	161	162	2	162	163	2	163	164	2	164	165	2	165	166	2	166	167	2	167	168	2	168	169	2	169	170	2	170	171	2	171	172	2	172	173	2	173	174	2	174	175	2	175	176	2	176	177	2	177	178	2	178	179	2	179	180	2	180	181	2	181	182	2	182	183	2	183	184	2	184	185	2	185	186	2	186	187	2	187	188	2	188	189	2	189	190	2	190	191	2	191	192	2	192	193	2	193	194	2	194	195	2	195	196	2	196	197	2	197	198	2	198	199	2	199	0	
CELL_TYPES 199
3	3	3	3	3	3	3	3	3	3	3	3	3	3	3	3	3	3	3	3	3	3	3	3	3	3	3	3	3	3	3	3	3	3	3	3	3	3	3	3	3	3	3	3	3	3	3	3	3	3	3	3	3	3	3	3	3	3	3	3	3	3	3	3	3	3	3	3	3	3	3	3	3	3	3	3	3	3	3	3	3	3	3	3	3	3	3	3	3	3	3	3	3	3	3	3	3	3	3	3	3	3	3	3	3	3	3	3	3	3	3	3	3	3	3	3	3	3	3	3	3	3	3	3	3	3	3	3	3	3	3	3	3	3	3	3	3	3	3	3	3	3	3	3	3	3	3	3	3	3	3	3	3	3	3	3	3	3	3	3	3	3	3	3	3	3	3	3	3	3	3	3	3	3	3	3	3	3	3	3	3	3	3	3	3	3	3	3	3	3	3	3	3	3	3	3	3	3	3	
POINT_DATA 200

SCALARS Conservative_1 double 1
LOOKUP_TABLE default
3.902669e+02	3.943557e+02	3.943552e+02	3.943558e+02	3.943585e+02	3.943634e+02	3.943707e+02	3.943802e+02	3.943921e+02	3.944062e+02	3.944225e+02	3.944406e+02	3.944606e+02	3.944821e+02	3.945050e+02	3.945292e+02	3.945544e+02	3.945805e+02	3.946074e+02	3.946348e+02	3.946628e+02	3.946910e+02	3.947195e+02	3.947480e+02	3.947762e+02	3.948041e+02	3.948313e+02	3.948574e+02	3.948822e+02	3.949054e+02	3.949265e+02	3.949453e+02	3.949616e+02	3.949750e+02	3.949856e+02	3.949934e+02	3.949985e+02	3.950011e+02	3.950015e+02	3.950002e+02	3.949975e+02	3.949940e+02	3.949901e+02	3.949863e+02	3.949830e+02	3.949807e+02	3.949797e+02	3.949803e+02	3.949826e+02	3.949866e+02	3.949925e+02	3.949999e+02	3.950085e+02	3.950180e+02	3.950276e+02	3.950366e+02	3.950443e+02	3.950497e+02	3.950520e+02	3.950504e+02	3.950443e+02	3.950330e+02	3.950164e+02	3.949944e+02	3.949672e+02	3.949350e+02	3.948985e+02	3.948583e+02	3.948149e+02	3.947691e+02	3.947214e+02	3.946723e+02	3.946222e+02	3.945713e+02	3.945197e+02	3.944676e+02	3.944149e+02	3.943616e+02	3.943076e+02	3.942529e+02	3.941973e+02	3.941408e+02	3.940835e+02	3.940252e+02	3.939660e+02	3.939060e+02	3.938451e+02	3.937834e+02	3.937211e+02	3.936581e+02	3.935947e+02	3.935308e+02	3.934666e+02	3.934022e+02	3.933377e+02	3.932731e+02	3.932086e+02	3.931443e+02	3.930802e+02	3.930164e+02	3.929529e+02	3.928900e+02	3.928275e+02	3.927656e+02	3.927044e+02	3.926438e+02	3.925839e+02	3.925247e+02	3.924664e+02	3.924088e+02	3.923520e+02	3.922962e+02	3.922411e+02	3.921870e+02	3.921338e+02	3.920814e+02	3.920300e+02	3.919795e+02	3.919299e+02	3.918813e+02	3.918335e+02	3.917867e+02	3.917408e+02	3.916958e+02	3.916517e+02	3.916086e+02	3.915663e+02	3.915249e+02	3.914844e+02	3.914448e+02	3.914061e+02	3.913682e+02	3.913311e+02	3.912949e+02	3.912595e+02	3.912248e+02	3.911910e+02	3.911580e+02	3.911257e+02	3.910942e+02	3.910634e+02	3.910333e+02	3.910040e+02	3.909754e+02	3.909475e+02	3.909202e+02	3.908936e+02	3.908677e+02	3.908425e+02	3.908178e+02	3.907938e+02	3.907705e+02	3.907477e+02	3.907255e+02	3.907039e+02	3.906829e+02	3.906624e+02	3.906425e+02	3.906232e+02	3.906044e+02	3.905861e+02	3.905683e+02	3.905511e+02	3.905344e+02	3.905181e+02	3.905024e+02	3.904872e+02	3.904724e+02	3.904581e+02	3.904444e+02	3.904310e+02	3.904182e+02	3.904058e+02	3.903939e+02	3.903824e+02	3.903714e+02	3.903608e+02	3.903506e+02	3.903409e+02	3.903317e+02	3.903229e+02	3.903145e+02	3.903066e+02	3.902992e+02	3.902922e+02	3.902858e+02	3.902799e+02	3.902746e+02	3.902698e+02	3.902658e+02	3.902624e+02	3.902597e+02	3.902579e+02	3.902568e+02	3.902565e+02	3.902570e+02	3.902581e+02	3.902599e+02	3.902622e+02	3.902649e+02	
SCALARS Residual_1 double 1
LOOKUP_TABLE default
2.684637e-16	1.981625e-16	4.460221e-16	4.821989e-17	1.431740e-16	4.865577e-16	-1.090843e-16	2.453685e-16	2.558412e-16	4.248395e-16	6.390881e-16	3.673252e-16	-2.122995e-16	3.427570e-16	3.091763e-16	3.155088e-16	2.492979e-16	1.217347e-16	6.189473e-16	7.104828e-17	4.540232e-16	1.144426e-16	-6.484207e-17	4.708063e-16	-1.668409e-16	8.927727e-17	5.950915e-16	-2.720246e-17	3.909616e-16	1.846659e-16	-2.390103e-16	-8.157139e-17	-1.256573e-16	1.247819e-16	6.178902e-16	1.494590e-17	4.674182e-17	-1.707470e-16	4.537996e-16	-8.214907e-17	6.358041e-17	5.202760e-16	4.810817e-16	-1.065119e-16	5.995443e-16	-1.752850e-17	-2.052191e-17	-1.433476e-16	1.037742e-16	3.010397e-16	-1.974095e-17	-9.810293e-17	-6.550402e-17	-1.945918e-16	-4.966959e-17	-2.033273e-16	7.330329e-16	2.023566e-16	-2.423859e-16	5.710021e-16	-2.485972e-16	3.594723e-17	2.395963e-16	5.824728e-16	3.154154e-16	7.695443e-17	5.114736e-16	2.890934e-16	5.897444e-16	3.583902e-16	3.025979e-16	3.972784e-16	6.885213e-16	3.429967e-16	-2.757550e-16	2.390488e-16	5.937748e-16	4.051020e-17	4.699373e-16	1.320016e-17	3.320132e-16	-4.070586e-17	4.569777e-16	1.303186e-16	4.912257e-16	2.929929e-16	7.962110e-20	-1.350645e-16	6.016390e-17	5.745441e-16	-1.258649e-16	-7.092715e-17	3.033191e-16	3.268226e-16	-1.349230e-16	6.891045e-16	5.717388e-17	4.800644e-16	1.279807e-16	2.301033e-16	4.226847e-16	2.672643e-16	-1.684071e-17	-3.253657e-16	3.061042e-16	5.532260e-16	-1.170515e-16	4.282040e-16	4.370961e-16	5.350470e-16	2.238285e-16	2.310808e-16	7.820994e-17	2.640354e-16	2.134100e-16	3.571650e-16	-5.530278e-17	6.501859e-16	-1.112036e-16	3.148235e-16	5.033442e-16	5.684353e-16	5.644695e-16	8.509124e-17	-1.667317e-16	1.815886e-16	-1.535451e-16	4.937541e-16	4.932307e-16	-6.959223e-17	-1.051913e-16	2.956213e-16	-1.243106e-16	5.652962e-16	6.149815e-16	-2.439116e-17	5.374136e-16	6.962950e-17	4.922329e-16	1.818952e-16	-1.329808e-16	1.150203e-16	4.533456e-16	1.681310e-16	7.996669e-17	5.313505e-16	3.377273e-16	3.045914e-16	1.059401e-16	2.516603e-16	-1.856578e-16	-2.159155e-16	2.233118e-17	1.167364e-16	5.345117e-16	2.958601e-16	5.441695e-16	3.208070e-16	3.413339e-16	3.489013e-16	6.340330e-16	1.076426e-16	2.367034e-16	-8.622965e-17	-2.706321e-16	-6.253644e-17	-7.960416e-18	7.832852e-17	6.379581e-16	4.916992e-16	8.155403e-17	7.730023e-18	-1.618612e-16	2.119276e-18	6.007903e-16	4.804371e-17	-5.933805e-17	1.015931e-17	-2.947336e-17	3.578934e-16	-1.766030e-16	3.051182e-17	1.795371e-16	3.195432e-16	5.556587e-16	-2.136742e-16	1.446427e-16	4.268944e-16	5.191380e-16	1.259182e-16	1.610633e-16	-1.049304e-16	5.111302e-16	1.397181e-16	-1.820748e-16	8.656507e-17	1.809550e-16	1.914633e-17	-1.416696e-16	3.319234e-16	