# vtk DataFile Version 3.0
vtk output
ASCII
DATASET UNSTRUCTURED_GRID
POINTS 200 double
2.005000e-03	0.000000e+00	0.0	2.004875e-03	1.578624e-05	0.0	2.004502e-03	3.156855e-05	0.0	2.003879e-03	4.734299e-05	0.0	2.003007e-03	6.310563e-05	0.0	2.001886e-03	7.885255e-05	0.0	2.000517e-03	9.457981e-05	0.0	1.998900e-03	1.102835e-04	0.0	1.997035e-03	1.259597e-04	0.0	1.994923e-03	1.416045e-04	0.0	1.992565e-03	1.572140e-04	0.0	1.989960e-03	1.727844e-04	0.0	1.987109e-03	1.883117e-04	0.0	1.984014e-03	2.037920e-04	0.0	1.980675e-03	2.192216e-04	0.0	1.977093e-03	2.345965e-04	0.0	1.973268e-03	2.499130e-04	0.0	1.969202e-03	2.651671e-04	0.0	1.964896e-03	2.803552e-04	0.0	1.960351e-03	2.954734e-04	0.0	1.955567e-03	3.105180e-04	0.0	1.950547e-03	3.254852e-04	0.0	1.945291e-03	3.403713e-04	0.0	1.939801e-03	3.551726e-04	0.0	1.934077e-03	3.698853e-04	0.0	1.928123e-03	3.845058e-04	0.0	1.921938e-03	3.990306e-04	0.0	1.915524e-03	4.134558e-04	0.0	1.908884e-03	4.277781e-04	0.0	1.902018e-03	4.419937e-04	0.0	1.894929e-03	4.560992e-04	0.0	1.887618e-03	4.700910e-04	0.0	1.880087e-03	4.839656e-04	0.0	1.872338e-03	4.977196e-04	0.0	1.864373e-03	5.113496e-04	0.0	1.856193e-03	5.248522e-04	0.0	1.847802e-03	5.382239e-04	0.0	1.839200e-03	5.514615e-04	0.0	1.830391e-03	5.645617e-04	0.0	1.821376e-03	5.775212e-04	0.0	1.812157e-03	5.903367e-04	0.0	1.802737e-03	6.030051e-04	0.0	1.793119e-03	6.155232e-04	0.0	1.783304e-03	6.278880e-04	0.0	1.773295e-03	6.400962e-04	0.0	1.763094e-03	6.521449e-04	0.0	1.752705e-03	6.640311e-04	0.0	1.742129e-03	6.757518e-04	0.0	1.731370e-03	6.873041e-04	0.0	1.720429e-03	6.986851e-04	0.0	1.709311e-03	7.098920e-04	0.0	1.698016e-03	7.209220e-04	0.0	1.686549e-03	7.317723e-04	0.0	1.674912e-03	7.424402e-04	0.0	1.663109e-03	7.529231e-04	0.0	1.651141e-03	7.632183e-04	0.0	1.639012e-03	7.733233e-04	0.0	1.626725e-03	7.832356e-04	0.0	1.614283e-03	7.929527e-04	0.0	1.601689e-03	8.024722e-04	0.0	1.588947e-03	8.117917e-04	0.0	1.576059e-03	8.209089e-04	0.0	1.563029e-03	8.298215e-04	0.0	1.549860e-03	8.385272e-04	0.0	1.536555e-03	8.470240e-04	0.0	1.523117e-03	8.553097e-04	0.0	1.509550e-03	8.633823e-04	0.0	1.495858e-03	8.712396e-04	0.0	1.482043e-03	8.788799e-04	0.0	1.468109e-03	8.863011e-04	0.0	1.454060e-03	8.935014e-04	0.0	1.439899e-03	9.004790e-04	0.0	1.425630e-03	9.072323e-04	0.0	1.411256e-03	9.137594e-04	0.0	1.396780e-03	9.200588e-04	0.0	1.382207e-03	9.261288e-04	0.0	1.367540e-03	9.319681e-04	0.0	1.352783e-03	9.375751e-04	0.0	1.337939e-03	9.429485e-04	0.0	1.323012e-03	9.480868e-04	0.0	1.308005e-03	9.529889e-04	0.0	1.292923e-03	9.576535e-04	0.0	1.277770e-03	9.620794e-04	0.0	1.262548e-03	9.662655e-04	0.0	1.247262e-03	9.702108e-04	0.0	1.231916e-03	9.739143e-04	0.0	1.216513e-03	9.773751e-04	0.0	1.201058e-03	9.805923e-04	0.0	1.185554e-03	9.835651e-04	0.0	1.170004e-03	9.862928e-04	0.0	1.154414e-03	9.887747e-04	0.0	1.138786e-03	9.910102e-04	0.0	1.123125e-03	9.929987e-04	0.0	1.107435e-03	9.947397e-04	0.0	1.091719e-03	9.962328e-04	0.0	1.075981e-03	9.974776e-04	0.0	1.060226e-03	9.984739e-04	0.0	1.044457e-03	9.992213e-04	0.0	1.028678e-03	9.997196e-04	0.0	1.012893e-03	9.999688e-04	0.0	9.971066e-04	9.999688e-04	0.0	9.813219e-04	9.997196e-04	0.0	9.655430e-04	9.992213e-04	0.0	9.497740e-04	9.984739e-04	0.0	9.340187e-04	9.974776e-04	0.0	9.182811e-04	9.962328e-04	0.0	9.025652e-04	9.947397e-04	0.0	8.868747e-04	9.929987e-04	0.0	8.712137e-04	9.910102e-04	0.0	8.555861e-04	9.887747e-04	0.0	8.399956e-04	9.862928e-04	0.0	8.244463e-04	9.835651e-04	0.0	8.089421e-04	9.805923e-04	0.0	7.934866e-04	9.773751e-04	0.0	7.780839e-04	9.739143e-04	0.0	7.627377e-04	9.702108e-04	0.0	7.474519e-04	9.662655e-04	0.0	7.322303e-04	9.620794e-04	0.0	7.170767e-04	9.576535e-04	0.0	7.019948e-04	9.529889e-04	0.0	6.869885e-04	9.480868e-04	0.0	6.720614e-04	9.429485e-04	0.0	6.572172e-04	9.375751e-04	0.0	6.424598e-04	9.319681e-04	0.0	6.277927e-04	9.261288e-04	0.0	6.132196e-04	9.200588e-04	0.0	5.987441e-04	9.137594e-04	0.0	5.843699e-04	9.072323e-04	0.0	5.701006e-04	9.004790e-04	0.0	5.559396e-04	8.935014e-04	0.0	5.418905e-04	8.863011e-04	0.0	5.279569e-04	8.788799e-04	0.0	5.141421e-04	8.712396e-04	0.0	5.004497e-04	8.633823e-04	0.0	4.868830e-04	8.553097e-04	0.0	4.734454e-04	8.470240e-04	0.0	4.601403e-04	8.385272e-04	0.0	4.469710e-04	8.298215e-04	0.0	4.339408e-04	8.209089e-04	0.0	4.210529e-04	8.117917e-04	0.0	4.083105e-04	8.024722e-04	0.0	3.957168e-04	7.929527e-04	0.0	3.832750e-04	7.832356e-04	0.0	3.709882e-04	7.733233e-04	0.0	3.588593e-04	7.632183e-04	0.0	3.468915e-04	7.529231e-04	0.0	3.350876e-04	7.424402e-04	0.0	3.234508e-04	7.317723e-04	0.0	3.119838e-04	7.209220e-04	0.0	3.006895e-04	7.098920e-04	0.0	2.895707e-04	6.986851e-04	0.0	2.786302e-04	6.873041e-04	0.0	2.678708e-04	6.757518e-04	0.0	2.572951e-04	6.640311e-04	0.0	2.469057e-04	6.521449e-04	0.0	2.367052e-04	6.400962e-04	0.0	2.266963e-04	6.278880e-04	0.0	2.168813e-04	6.155232e-04	0.0	2.072627e-04	6.030051e-04	0.0	1.978429e-04	5.903367e-04	0.0	1.886243e-04	5.775212e-04	0.0	1.796091e-04	5.645617e-04	0.0	1.707997e-04	5.514615e-04	0.0	1.621981e-04	5.382239e-04	0.0	1.538066e-04	5.248522e-04	0.0	1.456272e-04	5.113496e-04	0.0	1.376620e-04	4.977196e-04	0.0	1.299130e-04	4.839656e-04	0.0	1.223820e-04	4.700910e-04	0.0	1.150710e-04	4.560992e-04	0.0	1.079818e-04	4.419937e-04	0.0	1.011162e-04	4.277781e-04	0.0	9.447582e-05	4.134558e-04	0.0	8.806237e-05	3.990306e-04	0.0	8.187744e-05	3.845058e-04	0.0	7.592257e-05	3.698853e-04	0.0	7.019924e-05	3.551726e-04	0.0	6.470889e-05	3.403713e-04	0.0	5.945287e-05	3.254852e-04	0.0	5.443251e-05	3.105180e-04	0.0	4.964905e-05	2.954734e-04	0.0	4.510368e-05	2.803552e-04	0.0	4.079754e-05	2.651671e-04	0.0	3.673169e-05	2.499130e-04	0.0	3.290716e-05	2.345965e-04	0.0	2.932490e-05	2.192216e-04	0.0	2.598579e-05	2.037920e-04	0.0	2.289068e-05	1.883117e-04	0.0	2.004033e-05	1.727844e-04	0.0	1.743545e-05	1.572140e-04	0.0	1.507669e-05	1.416045e-04	0.0	1.296464e-05	1.259597e-04	0.0	1.109983e-05	1.102835e-04	0.0	9.482717e-06	9.457981e-05	0.0	8.113710e-06	7.885255e-05	0.0	6.993147e-06	6.310563e-05	0.0	6.121308e-06	4.734299e-05	0.0	5.498411e-06	3.156855e-05	0.0	5.124610e-06	1.578624e-05	0.0	5.000000e-06	0.000000e+00	0.0	
CELLS 199	597
2	0	1	2	1	2	2	2	3	2	3	4	2	4	5	2	5	6	2	6	7	2	7	8	2	8	9	2	9	10	2	10	11	2	11	12	2	12	13	2	13	14	2	14	15	2	15	16	2	16	17	2	17	18	2	18	19	2	19	20	2	20	21	2	21	22	2	22	23	2	23	24	2	24	25	2	25	26	2	26	27	2	27	28	2	28	29	2	29	30	2	30	31	2	31	32	2	32	33	2	33	34	2	34	35	2	35	36	2	36	37	2	37	38	2	38	39	2	39	40	2	40	41	2	41	42	2	42	43	2	43	44	2	44	45	2	45	46	2	46	47	2	47	48	2	48	49	2	49	50	2	50	51	2	51	52	2	52	53	2	53	54	2	54	55	2	55	56	2	56	57	2	57	58	2	58	59	2	59	60	2	60	61	2	61	62	2	62	63	2	63	64	2	64	65	2	65	66	2	66	67	2	67	68	2	68	69	2	69	70	2	70	71	2	71	72	2	72	73	2	73	74	2	74	75	2	75	76	2	76	77	2	77	78	2	78	79	2	79	80	2	80	81	2	81	82	2	82	83	2	83	84	2	84	85	2	85	86	2	86	87	2	87	88	2	88	89	2	89	90	2	90	91	2	91	92	2	92	93	2	93	94	2	94	95	2	95	96	2	96	97	2	97	98	2	98	99	2	99	100	2	100	101	2	101	102	2	102	103	2	103	104	2	104	105	2	105	106	2	106	107	2	107	108	2	108	109	2	109	110	2	110	111	2	111	112	2	112	113	2	113	114	2	114	115	2	115	116	2	116	117	2	117	118	2	118	119	2	119	120	2	120	121	2	121	122	2	122	123	2	123	124	2	124	125	2	125	126	2	126	127	2	127	128	2	128	129	2	129	130	2	130	131	2	131	132	2	132	133	2	133	134	2	134	135	2	135	136	2	136	137	2	137	138	2	138	139	2	139	140	2	140	141	2	141	142	2	142	143	2	143	144	2	144	145	2	145	146	2	146	147	2	147	148	2	148	149	2	149	150	2	150	151	2	151	152	2	152	153	2	153	154	2	154	155	2	155	156	2	156	157	2	157	158	2	158	159	2	159	160	2	160	161	2	161	162	2	162	163	2	163	164	2	164	165	2	165	166	2	166	167	2	167	168	2	168	169	2	169	170	2	170	171	2	171	172	2	172	173	2	173	174	2	174	175	2	175	176	2	176	177	2	177	178	2	178	179	2	179	180	2	180	181	2	181	182	2	182	183	2	183	184	2	184	185	2	185	186	2	186	187	2	187	188	2	188	189	2	189	190	2	190	191	2	191	192	2	192	193	2	193	194	2	194	195	2	195	196	2	196	197	2	197	198	2	198	199	
CELL_TYPES 199
3	3	3	3	3	3	3	3	3	3	3	3	3	3	3	3	3	3	3	3	3	3	3	3	3	3	3	3	3	3	3	3	3	3	3	3	3	3	3	3	3	3	3	3	3	3	3	3	3	3	3	3	3	3	3	3	3	3	3	3	3	3	3	3	3	3	3	3	3	3	3	3	3	3	3	3	3	3	3	3	3	3	3	3	3	3	3	3	3	3	3	3	3	3	3	3	3	3	3	3	3	3	3	3	3	3	3	3	3	3	3	3	3	3	3	3	3	3	3	3	3	3	3	3	3	3	3	3	3	3	3	3	3	3	3	3	3	3	3	3	3	3	3	3	3	3	3	3	3	3	3	3	3	3	3	3	3	3	3	3	3	3	3	3	3	3	3	3	3	3	3	3	3	3	3	3	3	3	3	3	3	3	3	3	3	3	3	3	3	3	3	3	3	3	3	3	3	3	3	
POINT_DATA 200

SCALARS Pressure double 1
LOOKUP_TABLE default
4.318800e+02	4.318609e+02	4.321428e+02	4.322346e+02	4.318827e+02	4.316775e+02	4.313966e+02	4.310764e+02	4.307500e+02	4.304183e+02	4.300824e+02	4.297509e+02	4.294282e+02	4.291212e+02	4.288344e+02	4.285712e+02	4.283343e+02	4.281253e+02	4.279445e+02	4.277915e+02	4.276653e+02	4.275639e+02	4.274853e+02	4.274269e+02	4.273862e+02	4.273609e+02	4.273489e+02	4.273486e+02	4.273588e+02	4.273786e+02	4.274077e+02	4.274459e+02	4.274929e+02	4.275482e+02	4.276112e+02	4.276802e+02	4.277533e+02	4.278277e+02	4.278999e+02	4.279660e+02	4.280219e+02	4.280635e+02	4.280873e+02	4.280907e+02	4.280718e+02	4.280301e+02	4.279662e+02	4.278816e+02	4.277781e+02	4.276580e+02	4.275231e+02	4.273750e+02	4.272143e+02	4.270415e+02	4.268564e+02	4.266581e+02	4.264453e+02	4.262158e+02	4.259665e+02	4.256932e+02	4.253907e+02	4.250532e+02	4.246748e+02	4.242497e+02	4.237722e+02	4.232369e+02	4.226376e+02	4.219681e+02	4.212222e+02	4.203939e+02	4.194781e+02	4.184708e+02	4.173687e+02	4.161700e+02	4.148735e+02	4.134797e+02	4.119902e+02	4.104086e+02	4.087403e+02	4.069922e+02	4.051730e+02	4.032930e+02	4.013636e+02	3.993975e+02	3.974082e+02	3.954100e+02	3.934178e+02	3.914467e+02	3.895119e+02	3.876287e+02	3.858123e+02	3.840774e+02	3.824382e+02	3.809084e+02	3.795009e+02	3.782278e+02	3.771002e+02	3.761283e+02	3.753213e+02	3.746871e+02	3.742326e+02	3.739635e+02	3.738844e+02	3.739985e+02	3.743084e+02	3.748151e+02	3.755192e+02	3.764198e+02	3.775155e+02	3.788037e+02	3.802810e+02	3.819436e+02	3.837868e+02	3.858055e+02	3.879940e+02	3.903463e+02	3.928559e+02	3.955160e+02	3.983195e+02	4.012589e+02	4.043267e+02	4.075151e+02	4.108164e+02	4.142227e+02	4.177264e+02	4.213196e+02	4.249950e+02	4.287448e+02	4.325619e+02	4.364389e+02	4.403688e+02	4.443446e+02	4.483598e+02	4.524079e+02	4.564827e+02	4.605783e+02	4.646890e+02	4.688095e+02	4.729344e+02	4.770588e+02	4.811778e+02	4.852866e+02	4.893807e+02	4.934556e+02	4.975075e+02	5.015326e+02	5.055272e+02	5.094882e+02	5.134124e+02	5.172969e+02	5.211390e+02	5.249358e+02	5.286847e+02	5.323832e+02	5.360289e+02	5.396196e+02	5.431532e+02	5.466277e+02	5.500414e+02	5.533926e+02	5.566796e+02	5.599008e+02	5.630547e+02	5.661399e+02	5.691548e+02	5.720981e+02	5.749685e+02	5.777645e+02	5.804852e+02	5.831292e+02	5.856955e+02	5.881832e+02	5.905913e+02	5.929190e+02	5.951657e+02	5.973307e+02	5.994133e+02	6.014129e+02	6.033289e+02	6.051606e+02	6.069074e+02	6.085687e+02	6.101441e+02	6.116330e+02	6.130349e+02	6.143493e+02	6.155758e+02	6.167139e+02	6.177633e+02	6.187233e+02	6.195925e+02	6.203694e+02	6.210583e+02	6.216680e+02	6.221582e+02	6.225163e+02	6.230730e+02	6.229827e+02	6.226292e+02	6.226458e+02	
VECTORS Velocity double
0.000000e+00	0.000000e+00	0.0	0.000000e+00	0.000000e+00	0.0	0.000000e+00	0.000000e+00	0.0	0.000000e+00	0.000000e+00	0.0	0.000000e+00	0.000000e+00	0.0	0.000000e+00	0.000000e+00	0.0	0.000000e+00	0.000000e+00	0.0	0.000000e+00	0.000000e+00	0.0	0.000000e+00	0.000000e+00	0.0	0.000000e+00	0.000000e+00	0.0	0.000000e+00	0.000000e+00	0.0	0.000000e+00	0.000000e+00	0.0	0.000000e+00	0.000000e+00	0.0	0.000000e+00	0.000000e+00	0.0	0.000000e+00	0.000000e+00	0.0	0.000000e+00	0.000000e+00	0.0	0.000000e+00	0.000000e+00	0.0	0.000000e+00	0.000000e+00	0.0	0.000000e+00	0.000000e+00	0.0	0.000000e+00	0.000000e+00	0.0	0.000000e+00	0.000000e+00	0.0	0.000000e+00	0.000000e+00	0.0	0.000000e+00	0.000000e+00	0.0	0.000000e+00	0.000000e+00	0.0	0.000000e+00	0.000000e+00	0.0	0.000000e+00	0.000000e+00	0.0	0.000000e+00	0.000000e+00	0.0	0.000000e+00	0.000000e+00	0.0	0.000000e+00	0.000000e+00	0.0	0.000000e+00	0.000000e+00	0.0	0.000000e+00	0.000000e+00	0.0	0.000000e+00	0.000000e+00	0.0	0.000000e+00	0.000000e+00	0.0	0.000000e+00	0.000000e+00	0.0	0.000000e+00	0.000000e+00	0.0	0.000000e+00	0.000000e+00	0.0	0.000000e+00	0.000000e+00	0.0	0.000000e+00	0.000000e+00	0.0	0.000000e+00	0.000000e+00	0.0	0.000000e+00	0.000000e+00	0.0	0.000000e+00	0.000000e+00	0.0	0.000000e+00	0.000000e+00	0.0	0.000000e+00	0.000000e+00	0.0	0.000000e+00	0.000000e+00	0.0	0.000000e+00	0.000000e+00	0.0	0.000000e+00	0.000000e+00	0.0	0.000000e+00	0.000000e+00	0.0	0.000000e+00	0.000000e+00	0.0	0.000000e+00	0.000000e+00	0.0	0.000000e+00	0.000000e+00	0.0	0.000000e+00	0.000000e+00	0.0	0.000000e+00	0.000000e+00	0.0	0.000000e+00	0.000000e+00	0.0	0.000000e+00	0.000000e+00	0.0	0.000000e+00	0.000000e+00	0.0	0.000000e+00	0.000000e+00	0.0	0.000000e+00	0.000000e+00	0.0	0.000000e+00	0.000000e+00	0.0	0.000000e+00	0.000000e+00	0.0	0.000000e+00	0.000000e+00	0.0	0.000000e+00	0.000000e+00	0.0	0.000000e+00	0.000000e+00	0.0	0.000000e+00	0.000000e+00	0.0	0.000000e+00	0.000000e+00	0.0	0.000000e+00	0.000000e+00	0.0	0.000000e+00	0.000000e+00	0.0	0.000000e+00	0.000000e+00	0.0	0.000000e+00	0.000000e+00	0.0	0.000000e+00	0.000000e+00	0.0	0.000000e+00	0.000000e+00	0.0	0.000000e+00	0.000000e+00	0.0	0.000000e+00	0.000000e+00	0.0	0.000000e+00	0.000000e+00	0.0	0.000000e+00	0.000000e+00	0.0	0.000000e+00	0.000000e+00	0.0	0.000000e+00	0.000000e+00	0.0	0.000000e+00	0.000000e+00	0.0	0.000000e+00	0.000000e+00	0.0	0.000000e+00	0.000000e+00	0.0	0.000000e+00	0.000000e+00	0.0	0.000000e+00	0.000000e+00	0.0	0.000000e+00	0.000000e+00	0.0	0.000000e+00	0.000000e+00	0.0	0.000000e+00	0.000000e+00	0.0	0.000000e+00	0.000000e+00	0.0	0.000000e+00	0.000000e+00	0.0	0.000000e+00	0.000000e+00	0.0	0.000000e+00	0.000000e+00	0.0	0.000000e+00	0.000000e+00	0.0	0.000000e+00	0.000000e+00	0.0	0.000000e+00	0.000000e+00	0.0	0.000000e+00	0.000000e+00	0.0	0.000000e+00	0.000000e+00	0.0	0.000000e+00	0.000000e+00	0.0	0.000000e+00	0.000000e+00	0.0	0.000000e+00	0.000000e+00	0.0	0.000000e+00	0.000000e+00	0.0	0.000000e+00	0.000000e+00	0.0	0.000000e+00	0.000000e+00	0.0	0.000000e+00	0.000000e+00	0.0	0.000000e+00	0.000000e+00	0.0	0.000000e+00	0.000000e+00	0.0	0.000000e+00	0.000000e+00	0.0	0.000000e+00	0.000000e+00	0.0	0.000000e+00	0.000000e+00	0.0	0.000000e+00	0.000000e+00	0.0	0.000000e+00	0.000000e+00	0.0	0.000000e+00	0.000000e+00	0.0	0.000000e+00	0.000000e+00	0.0	0.000000e+00	0.000000e+00	0.0	0.000000e+00	0.000000e+00	0.0	0.000000e+00	0.000000e+00	0.0	0.000000e+00	0.000000e+00	0.0	0.000000e+00	0.000000e+00	0.0	0.000000e+00	0.000000e+00	0.0	0.000000e+00	0.000000e+00	0.0	0.000000e+00	0.000000e+00	0.0	0.000000e+00	0.000000e+00	0.0	0.000000e+00	0.000000e+00	0.0	0.000000e+00	0.000000e+00	0.0	0.000000e+00	0.000000e+00	0.0	0.000000e+00	0.000000e+00	0.0	0.000000e+00	0.000000e+00	0.0	0.000000e+00	0.000000e+00	0.0	0.000000e+00	0.000000e+00	0.0	0.000000e+00	0.000000e+00	0.0	0.000000e+00	0.000000e+00	0.0	0.000000e+00	0.000000e+00	0.0	0.000000e+00	0.000000e+00	0.0	0.000000e+00	0.000000e+00	0.0	0.000000e+00	0.000000e+00	0.0	0.000000e+00	0.000000e+00	0.0	0.000000e+00	0.000000e+00	0.0	0.000000e+00	0.000000e+00	0.0	0.000000e+00	0.000000e+00	0.0	0.000000e+00	0.000000e+00	0.0	0.000000e+00	0.000000e+00	0.0	0.000000e+00	0.000000e+00	0.0	0.000000e+00	0.000000e+00	0.0	0.000000e+00	0.000000e+00	0.0	0.000000e+00	0.000000e+00	0.0	0.000000e+00	0.000000e+00	0.0	0.000000e+00	0.000000e+00	0.0	0.000000e+00	0.000000e+00	0.0	0.000000e+00	0.000000e+00	0.0	0.000000e+00	0.000000e+00	0.0	0.000000e+00	0.000000e+00	0.0	0.000000e+00	0.000000e+00	0.0	0.000000e+00	0.000000e+00	0.0	0.000000e+00	0.000000e+00	0.0	0.000000e+00	0.000000e+00	0.0	0.000000e+00	0.000000e+00	0.0	0.000000e+00	0.000000e+00	0.0	0.000000e+00	0.000000e+00	0.0	0.000000e+00	0.000000e+00	0.0	0.000000e+00	0.000000e+00	0.0	0.000000e+00	0.000000e+00	0.0	0.000000e+00	0.000000e+00	0.0	0.000000e+00	0.000000e+00	0.0	0.000000e+00	0.000000e+00	0.0	0.000000e+00	0.000000e+00	0.0	0.000000e+00	0.000000e+00	0.0	0.000000e+00	0.000000e+00	0.0	0.000000e+00	0.000000e+00	0.0	0.000000e+00	0.000000e+00	0.0	0.000000e+00	0.000000e+00	0.0	0.000000e+00	0.000000e+00	0.0	0.000000e+00	0.000000e+00	0.0	0.000000e+00	0.000000e+00	0.0	0.000000e+00	0.000000e+00	0.0	0.000000e+00	0.000000e+00	0.0	0.000000e+00	0.000000e+00	0.0	0.000000e+00	0.000000e+00	0.0	0.000000e+00	0.000000e+00	0.0	0.000000e+00	0.000000e+00	0.0	0.000000e+00	0.000000e+00	0.0	0.000000e+00	0.000000e+00	0.0	0.000000e+00	0.000000e+00	0.0	0.000000e+00	0.000000e+00	0.0	0.000000e+00	0.000000e+00	0.0	0.000000e+00	0.000000e+00	0.0	0.000000e+00	0.000000e+00	0.0	0.000000e+00	0.000000e+00	0.0	0.000000e+00	0.000000e+00	0.0	0.000000e+00	0.000000e+00	0.0	0.000000e+00	0.000000e+00	0.0	0.000000e+00	0.000000e+00	0.0	0.000000e+00	0.000000e+00	0.0	0.000000e+00	0.000000e+00	0.0	0.000000e+00	0.000000e+00	0.0	0.000000e+00	0.000000e+00	0.0	0.000000e+00	0.000000e+00	0.0	0.000000e+00	0.000000e+00	0.0	0.000000e+00	0.000000e+00	0.0	0.000000e+00	0.000000e+00	0.0	0.000000e+00	0.000000e+00	0.0	0.000000e+00	0.000000e+00	0.0	0.000000e+00	0.000000e+00	0.0	0.000000e+00	0.000000e+00	0.0	0.000000e+00	0.000000e+00	0.0	
SCALARS Temperature double 1
LOOKUP_TABLE default
3.943223e+02	3.943627e+02	3.943704e+02	3.943746e+02	3.943799e+02	3.943872e+02	3.943966e+02	3.944084e+02	3.944223e+02	3.944383e+02	3.944562e+02	3.944759e+02	3.944970e+02	3.945196e+02	3.945434e+02	3.945682e+02	3.945938e+02	3.946203e+02	3.946473e+02	3.946748e+02	3.947026e+02	3.947305e+02	3.947585e+02	3.947863e+02	3.948137e+02	3.948403e+02	3.948660e+02	3.948904e+02	3.949132e+02	3.949340e+02	3.949525e+02	3.949685e+02	3.949818e+02	3.949924e+02	3.950001e+02	3.950053e+02	3.950080e+02	3.950086e+02	3.950074e+02	3.950050e+02	3.950017e+02	3.949981e+02	3.949945e+02	3.949914e+02	3.949892e+02	3.949882e+02	3.949887e+02	3.949909e+02	3.949947e+02	3.950002e+02	3.950071e+02	3.950153e+02	3.950242e+02	3.950332e+02	3.950416e+02	3.950486e+02	3.950535e+02	3.950553e+02	3.950533e+02	3.950468e+02	3.950353e+02	3.950186e+02	3.949967e+02	3.949695e+02	3.949377e+02	3.949015e+02	3.948617e+02	3.948188e+02	3.947735e+02	3.947263e+02	3.946777e+02	3.946281e+02	3.945777e+02	3.945266e+02	3.944749e+02	3.944225e+02	3.943696e+02	3.943159e+02	3.942615e+02	3.942063e+02	3.941501e+02	3.940931e+02	3.940352e+02	3.939763e+02	3.939166e+02	3.938561e+02	3.937948e+02	3.937328e+02	3.936703e+02	3.936072e+02	3.935437e+02	3.934800e+02	3.934160e+02	3.933518e+02	3.932877e+02	3.932236e+02	3.931596e+02	3.930959e+02	3.930325e+02	3.929694e+02	3.929068e+02	3.928447e+02	3.927832e+02	3.927222e+02	3.926619e+02	3.926024e+02	3.925435e+02	3.924854e+02	3.924281e+02	3.923716e+02	3.923160e+02	3.922612e+02	3.922073e+02	3.921543e+02	3.921022e+02	3.920510e+02	3.920007e+02	3.919513e+02	3.919028e+02	3.918552e+02	3.918085e+02	3.917628e+02	3.917180e+02	3.916740e+02	3.916310e+02	3.915889e+02	3.915476e+02	3.915072e+02	3.914677e+02	3.914291e+02	3.913913e+02	3.913543e+02	3.913181e+02	3.912828e+02	3.912483e+02	3.912145e+02	3.911815e+02	3.911493e+02	3.911179e+02	3.910871e+02	3.910572e+02	3.910279e+02	3.909993e+02	3.909714e+02	3.909442e+02	3.909177e+02	3.908918e+02	3.908666e+02	3.908420e+02	3.908180e+02	3.907947e+02	3.907720e+02	3.907498e+02	3.907282e+02	3.907072e+02	3.906868e+02	3.906669e+02	3.906476e+02	3.906288e+02	3.906106e+02	3.905928e+02	3.905756e+02	3.905589e+02	3.905427e+02	3.905270e+02	3.905118e+02	3.904970e+02	3.904828e+02	3.904690e+02	3.904557e+02	3.904429e+02	3.904305e+02	3.904186e+02	3.904072e+02	3.903961e+02	3.903856e+02	3.903755e+02	3.903658e+02	3.903565e+02	3.903477e+02	3.903394e+02	3.903315e+02	3.903241e+02	3.903172e+02	3.903108e+02	3.903049e+02	3.902996e+02	3.902949e+02	3.902908e+02	3.902874e+02	3.902847e+02	3.902828e+02	3.902817e+02	3.902813e+02	3.902817e+02	3.902826e+02	3.902837e+02	3.902836e+02	3.902758e+02	3.902183e+02	
SCALARS Nu_Tilde double 1
LOOKUP_TABLE default
1.000000e-10	1.000000e-10	1.000000e-10	1.000000e-10	1.000000e-10	1.000000e-10	1.000000e-10	1.000000e-10	1.000000e-10	1.000000e-10	1.000000e-10	1.000000e-10	1.000000e-10	1.000000e-10	1.000000e-10	1.000000e-10	1.000000e-10	1.000000e-10	1.000000e-10	1.000000e-10	1.000000e-10	1.000000e-10	1.000000e-10	1.000000e-10	1.000000e-10	1.000000e-10	1.000000e-10	1.000000e-10	1.000000e-10	1.000000e-10	1.000000e-10	1.000000e-10	1.000000e-10	1.000000e-10	1.000000e-10	1.000000e-10	1.000000e-10	1.000000e-10	1.000000e-10	1.000000e-10	1.000000e-10	1.000000e-10	1.000000e-10	1.000000e-10	1.000000e-10	1.000000e-10	1.000000e-10	1.000000e-10	1.000000e-10	1.000000e-10	1.000000e-10	1.000000e-10	1.000000e-10	1.000000e-10	1.000000e-10	1.000000e-10	1.000000e-10	1.000000e-10	1.000000e-10	1.000000e-10	1.000000e-10	1.000000e-10	1.000000e-10	1.000000e-10	1.000000e-10	1.000000e-10	1.000000e-10	1.000000e-10	1.000000e-10	1.000000e-10	1.000000e-10	1.000000e-10	1.000000e-10	1.000000e-10	1.000000e-10	1.000000e-10	1.000000e-10	1.000000e-10	1.000000e-10	1.000000e-10	1.000000e-10	1.000000e-10	1.000000e-10	1.000000e-10	1.000000e-10	1.000000e-10	1.000000e-10	1.000000e-10	1.000000e-10	1.000000e-10	1.000000e-10	1.000000e-10	1.000000e-10	1.000000e-10	1.000000e-10	1.000000e-10	1.000000e-10	1.000000e-10	1.000000e-10	1.000000e-10	1.000000e-10	1.000000e-10	1.000000e-10	1.000000e-10	1.000000e-10	1.000000e-10	1.000000e-10	1.000000e-10	1.000000e-10	1.000000e-10	1.000000e-10	1.000000e-10	1.000000e-10	1.000000e-10	1.000000e-10	1.000000e-10	1.000000e-10	1.000000e-10	1.000000e-10	1.000000e-10	1.000000e-10	1.000000e-10	1.000000e-10	1.000000e-10	1.000000e-10	1.000000e-10	1.000000e-10	1.000000e-10	1.000000e-10	1.000000e-10	1.000000e-10	1.000000e-10	1.000000e-10	1.000000e-10	1.000000e-10	1.000000e-10	1.000000e-10	1.000000e-10	1.000000e-10	1.000000e-10	1.000000e-10	1.000000e-10	1.000000e-10	1.000000e-10	1.000000e-10	1.000000e-10	1.000000e-10	1.000000e-10	1.000000e-10	1.000000e-10	1.000000e-10	1.000000e-10	1.000000e-10	1.000000e-10	1.000000e-10	1.000000e-10	1.000000e-10	1.000000e-10	1.000000e-10	1.000000e-10	1.000000e-10	1.000000e-10	1.000000e-10	1.000000e-10	1.000000e-10	1.000000e-10	1.000000e-10	1.000000e-10	1.000000e-10	1.000000e-10	1.000000e-10	1.000000e-10	1.000000e-10	1.000000e-10	1.000000e-10	1.000000e-10	1.000000e-10	1.000000e-10	1.000000e-10	1.000000e-10	1.000000e-10	1.000000e-10	1.000000e-10	1.000000e-10	1.000000e-10	1.000000e-10	1.000000e-10	1.000000e-10	1.000000e-10	1.000000e-10	1.000000e-10	1.000000e-10	1.000000e-10	1.000000e-10	1.000000e-10	1.000000e-10	1.000000e-10	1.000000e-10	1.000000e-10	1.000000e-10	
SCALARS Residual_Pressure double 1
LOOKUP_TABLE default
6.430916e-21	2.136649e-20	3.218767e-20	1.838740e-20	2.622163e-20	-1.953749e-20	2.251486e-20	-7.892725e-21	-9.321000e-21	1.212281e-20	2.845485e-20	-2.284695e-20	-4.537247e-21	6.891810e-21	-5.256314e-21	-6.998400e-22	5.702074e-21	-1.270628e-20	-3.455211e-20	1.292904e-20	-1.442794e-20	1.163233e-20	-7.850946e-21	-1.475028e-21	1.535431e-20	-2.063621e-20	4.510206e-20	-8.521811e-21	-5.871692e-21	-1.446600e-20	1.654566e-20	-1.904963e-21	1.294484e-20	-1.351326e-20	-1.630871e-20	2.601946e-20	-1.084713e-20	1.433443e-20	-3.416288e-21	3.859883e-20	-3.948252e-20	4.364197e-20	-9.148065e-21	3.279591e-20	8.508534e-22	1.708674e-20	-1.180104e-20	-1.083059e-20	4.140646e-21	9.320953e-21	1.022191e-20	-1.111184e-20	3.419167e-20	1.761989e-20	7.015381e-21	-2.050083e-20	-2.891254e-20	7.733799e-21	-7.562759e-21	1.094146e-20	5.471066e-20	-2.604536e-20	5.415293e-21	-5.083342e-21	3.970806e-21	2.626712e-21	7.070423e-21	-1.880658e-20	1.316378e-20	1.280569e-20	-8.330843e-21	3.267244e-21	-2.318454e-20	-3.096495e-20	-1.675265e-20	-4.152331e-20	-2.867287e-20	1.880346e-21	-2.718932e-20	-2.267975e-20	-3.233993e-20	-1.584044e-20	3.235702e-20	-2.097802e-20	1.292215e-20	-3.578997e-20	3.658814e-21	-3.464000e-21	-2.245790e-20	-2.213148e-20	6.838632e-21	-1.817041e-20	-1.883982e-20	4.080346e-21	-1.771773e-20	-1.347230e-20	-2.583496e-20	-2.087597e-21	-1.613264e-20	-2.125232e-20	-1.921241e-20	-2.667061e-20	-1.447642e-20	-3.246875e-20	-1.203965e-20	-9.193582e-21	-2.498005e-20	-2.213065e-20	-3.696777e-20	-4.055664e-20	-4.417510e-20	-1.300936e-20	-3.017847e-20	-2.713840e-20	-4.430383e-20	-8.417238e-21	-1.369094e-20	-2.570975e-20	-1.625159e-20	-2.006624e-20	-8.594177e-21	-4.643889e-20	-1.533041e-20	-1.260101e-20	-3.154710e-20	-6.147454e-21	-1.475217e-20	-2.176477e-20	2.068992e-21	-1.442371e-20	-2.568766e-20	-8.858329e-21	-2.976092e-20	-3.085567e-20	-2.530000e-21	-2.873864e-20	-3.258064e-21	2.887634e-21	-3.077808e-20	-4.757698e-20	-3.334384e-21	-2.359747e-20	-2.708643e-20	-3.329115e-20	-3.309568e-20	-1.460158e-20	-5.957230e-20	-2.568993e-20	-5.270726e-20	-5.857024e-21	-2.943275e-20	6.580798e-21	-3.529381e-20	3.236998e-21	-2.525998e-20	1.785660e-22	-1.464594e-20	-6.402257e-20	-4.198368e-20	1.762191e-20	-6.619296e-21	-3.075743e-20	1.527094e-20	-4.313219e-20	-2.335145e-22	-3.840078e-20	-1.010348e-21	-1.570591e-20	-6.237784e-21	7.941419e-22	-2.639156e-20	1.617901e-20	-6.009550e-20	6.144768e-20	-4.903784e-20	-5.899062e-21	-6.028513e-21	-4.528002e-20	3.098595e-20	-5.877391e-20	-4.780305e-20	-7.520641e-22	-1.585609e-20	8.482736e-21	1.363886e-21	-5.525059e-20	1.457091e-20	-2.469254e-20	-4.335178e-20	-3.659951e-20	2.592124e-20	-3.295739e-20	-1.172994e-20	-5.659143e-21	-3.381018e-20	-5.089063e-20	1.577227e-20	-4.154742e-20	-1.865375e-20	-1.793989e-20	
VECTORS Residual_Velocity double