# vtk DataFile Version 3.0
vtk output
ASCII
DATASET UNSTRUCTURED_GRID
POINTS 4325 double
5.000000e-06	0.000000e+00	0.0	5.100000e-06	0.000000e+00	0.0	5.260000e-06	0.000000e+00	0.0	5.516000e-06	0.000000e+00	0.0	5.925600e-06	0.000000e+00	0.0	6.580960e-06	0.000000e+00	0.0	7.629536e-06	0.000000e+00	0.0	9.307258e-06	0.000000e+00	0.0	1.199161e-05	0.000000e+00	0.0	1.628658e-05	0.000000e+00	0.0	2.315853e-05	0.000000e+00	0.0	4.377437e-05	0.000000e+00	0.0	6.533896e-05	0.000000e+00	0.0	8.785566e-05	0.000000e+00	0.0	1.113226e-04	0.000000e+00	0.0	1.357324e-04	0.000000e+00	0.0	1.610715e-04	0.000000e+00	0.0	1.873201e-04	0.000000e+00	0.0	2.144517e-04	0.000000e+00	0.0	2.424330e-04	0.000000e+00	0.0	2.712237e-04	0.000000e+00	0.0	3.007766e-04	0.000000e+00	0.0	3.310375e-04	0.000000e+00	0.0	3.619459e-04	0.000000e+00	0.0	3.934348e-04	0.000000e+00	0.0	4.254314e-04	0.000000e+00	0.0	4.578577e-04	0.000000e+00	0.0	4.906314e-04	0.000000e+00	0.0	5.236661e-04	0.000000e+00	0.0	5.568730e-04	0.000000e+00	0.0	5.901611e-04	0.000000e+00	0.0	6.234387e-04	0.000000e+00	0.0	6.566142e-04	0.000000e+00	0.0	6.895969e-04	0.000000e+00	0.0	7.222984e-04	0.000000e+00	0.0	7.550000e-04	0.000000e+00	0.0	7.571388e-04	3.263155e-05	0.0	7.635185e-04	6.470476e-05	0.0	7.740301e-04	9.567086e-05	0.0	7.884936e-04	1.250000e-04	0.0	8.066617e-04	1.521904e-04	0.0	8.282233e-04	1.767767e-04	0.0	8.528096e-04	1.983383e-04	0.0	8.800000e-04	2.165064e-04	0.0	9.093291e-04	2.309699e-04	0.0	9.402952e-04	2.414815e-04	0.0	9.723685e-04	2.478612e-04	0.0	1.005000e-03	2.500000e-04	0.0	1.037632e-03	2.478612e-04	0.0	1.069705e-03	2.414815e-04	0.0	1.100671e-03	2.309699e-04	0.0	1.130000e-03	2.165064e-04	0.0	1.157190e-03	1.983383e-04	0.0	1.181777e-03	1.767767e-04	0.0	1.203338e-03	1.521904e-04	0.0	1.221506e-03	1.250000e-04	0.0	1.235970e-03	9.567086e-05	0.0	1.246481e-03	6.470476e-05	0.0	1.252861e-03	3.263155e-05	0.0	1.255000e-03	0.000000e+00	0.0	1.287702e-03	0.000000e+00	0.0	1.320403e-03	0.000000e+00	0.0	1.353386e-03	0.000000e+00	0.0	1.386561e-03	0.000000e+00	0.0	1.419839e-03	0.000000e+00	0.0	1.453127e-03	0.000000e+00	0.0	1.486334e-03	0.000000e+00	0.0	1.519369e-03	0.000000e+00	0.0	1.552142e-03	0.000000e+00	0.0	1.584569e-03	0.000000e+00	0.0	1.616565e-03	0.000000e+00	0.0	1.648054e-03	0.000000e+00	0.0	1.678962e-03	0.000000e+00	0.0	1.709223e-03	0.000000e+00	0.0	1.738776e-03	0.000000e+00	0.0	1.767567e-03	0.000000e+00	0.0	1.795548e-03	0.000000e+00	0.0	1.822680e-03	0.000000e+00	0.0	1.848929e-03	0.000000e+00	0.0	1.874268e-03	0.000000e+00	0.0	1.898677e-03	0.000000e+00	0.0	1.922144e-03	0.000000e+00	0.0	1.944661e-03	0.000000e+00	0.0	1.966226e-03	0.000000e+00	0.0	1.986841e-03	0.000000e+00	0.0	1.993713e-03	0.000000e+00	0.0	1.998008e-03	0.000000e+00	0.0	2.000693e-03	0.000000e+00	0.0	2.002370e-03	0.000000e+00	0.0	2.003419e-03	0.000000e+00	0.0	2.004074e-03	0.000000e+00	0.0	2.004484e-03	0.000000e+00	0.0	2.004740e-03	0.000000e+00	0.0	2.004900e-03	0.000000e+00	0.0	2.005000e-03	0.000000e+00	0.0	2.004875e-03	1.578624e-05	0.0	2.004502e-03	3.156855e-05	0.0	2.003879e-03	4.734299e-05	0.0	2.003007e-03	6.310563e-05	0.0	2.001886e-03	7.885255e-05	0.0	2.000517e-03	9.457981e-05	0.0	1.998900e-03	1.102835e-04	0.0	1.997035e-03	1.259597e-04	0.0	1.994923e-03	1.416045e-04	0.0	1.992565e-03	1.572140e-04	0.0	1.989960e-03	1.727844e-04	0.0	1.987109e-03	1.883117e-04	0.0	1.984014e-03	2.037920e-04	0.0	1.980675e-03	2.192216e-04	0.0	1.977093e-03	2.345965e-04	0.0	1.973268e-03	2.499130e-04	0.0	1.969202e-03	2.651671e-04	0.0	1.964896e-03	2.803552e-04	0.0	1.960351e-03	2.954734e-04	0.0	1.955567e-03	3.105180e-04	0.0	1.950547e-03	3.254852e-04	0.0	1.945291e-03	3.403713e-04	0.0	1.939801e-03	3.551726e-04	0.0	1.934077e-03	3.698853e-04	0.0	1.928123e-03	3.845058e-04	0.0	1.921938e-03	3.990306e-04	0.0	1.915524e-03	4.134558e-04	0.0	1.908884e-03	4.277781e-04	0.0	1.902018e-03	4.419937e-04	0.0	1.894929e-03	4.560992e-04	0.0	1.887618e-03	4.700910e-04	0.0	1.880087e-03	4.839656e-04	0.0	1.872338e-03	4.977196e-04	0.0	1.864373e-03	5.113496e-04	0.0	1.856193e-03	5.248522e-04	0.0	1.847802e-03	5.382239e-04	0.0	1.839200e-03	5.514615e-04	0.0	1.830391e-03	5.645617e-04	0.0	1.821376e-03	5.775212e-04	0.0	1.812157e-03	5.903367e-04	0.0	1.802737e-03	6.030051e-04	0.0	1.793119e-03	6.155232e-04	0.0	1.783304e-03	6.278880e-04	0.0	1.773295e-03	6.400962e-04	0.0	1.763094e-03	6.521449e-04	0.0	1.752705e-03	6.640311e-04	0.0	1.742129e-03	6.757518e-04	0.0	1.731370e-03	6.873041e-04	0.0	1.720429e-03	6.986851e-04	0.0	1.709311e-03	7.098920e-04	0.0	1.698016e-03	7.209220e-04	0.0	1.686549e-03	7.317723e-04	0.0	1.674912e-03	7.424402e-04	0.0	1.663109e-03	7.529231e-04	0.0	1.651141e-03	7.632183e-04	0.0	1.639012e-03	7.733233e-04	0.0	1.626725e-03	7.832356e-04	0.0	1.614283e-03	7.929527e-04	0.0	1.601689e-03	8.024722e-04	0.0	1.588947e-03	8.117917e-04	0.0	1.576059e-03	8.209089e-04	0.0	1.563029e-03	8.298215e-04	0.0	1.549860e-03	8.385272e-04	0.0	1.536555e-03	8.470240e-04	0.0	1.523117e-03	8.553097e-04	0.0	1.509550e-03	8.633823e-04	0.0	1.495858e-03	8.712396e-04	0.0	1.482043e-03	8.788799e-04	0.0	1.468109e-03	8.863011e-04	0.0	1.454060e-03	8.935014e-04	0.0	1.439899e-03	9.004790e-04	0.0	1.425630e-03	9.072323e-04	0.0	1.411256e-03	9.137594e-04	0.0	1.396780e-03	9.200588e-04	0.0	1.382207e-03	9.261288e-04	0.0	1.367540e-03	9.319681e-04	0.0	1.352783e-03	9.375751e-04	0.0	1.337939e-03	9.429485e-04	0.0	1.323012e-03	9.480868e-04	0.0	1.308005e-03	9.529889e-04	0.0	1.292923e-03	9.576535e-04	0.0	1.277770e-03	9.620794e-04	0.0	1.262548e-03	9.662655e-04	0.0	1.247262e-03	9.702108e-04	0.0	1.231916e-03	9.739143e-04	0.0	1.216513e-03	9.773751e-04	0.0	1.201058e-03	9.805923e-04	0.0	1.185554e-03	9.835651e-04	0.0	1.170004e-03	9.862928e-04	0.0	1.154414e-03	9.887747e-04	0.0	1.138786e-03	9.910102e-04	0.0	1.123125e-03	9.929987e-04	0.0	1.107435e-03	9.947397e-04	0.0	1.091719e-03	9.962328e-04	0.0	1.075981e-03	9.974776e-04	0.0	1.060226e-03	9.984739e-04	0.0	1.044457e-03	9.992213e-04	0.0	1.028678e-03	9.997196e-04	0.0	1.012893e-03	9.999688e-04	0.0	9.971066e-04	9.999688e-04	0.0	9.813219e-04	9.997196e-04	0.0	9.655430e-04	9.992213e-04	0.0	9.497740e-04	9.984739e-04	0.0	9.340187e-04	9.974776e-04	0.0	9.182811e-04	9.962328e-04	0.0	9.025652e-04	9.947397e-04	0.0	8.868747e-04	9.929987e-04	0.0	8.712137e-04	9.910102e-04	0.0	8.555861e-04	9.887747e-04	0.0	8.399956e-04	9.862928e-04	0.0	8.244463e-04	9.835651e-04	0.0	8.089421e-04	9.805923e-04	0.0	7.934866e-04	9.773751e-04	0.0	7.780839e-04	9.739143e-04	0.0	7.627377e-04	9.702108e-04	0.0	7.474519e-04	9.662655e-04	0.0	7.322303e-04	9.620794e-04	0.0	7.170767e-04	9.576535e-04	0.0	7.019948e-04	9.529889e-04	0.0	6.869885e-04	9.480868e-04	0.0	6.720614e-04	9.429485e-04	0.0	6.572172e-04	9.375751e-04	0.0	6.424598e-04	9.319681e-04	0.0	6.277927e-04	9.261288e-04	0.0	6.132196e-04	9.200588e-04	0.0	5.987441e-04	9.137594e-04	0.0	5.843699e-04	9.072323e-04	0.0	5.701006e-04	9.004790e-04	0.0	5.559396e-04	8.935014e-04	0.0	5.418905e-04	8.863011e-04	0.0	5.279569e-04	8.788799e-04	0.0	5.141421e-04	8.712396e-04	0.0	5.004497e-04	8.633823e-04	0.0	4.868830e-04	8.553097e-04	0.0	4.734454e-04	8.470240e-04	0.0	4.601403e-04	8.385272e-04	0.0	4.469710e-04	8.298215e-04	0.0	4.339408e-04	8.209089e-04	0.0	4.210529e-04	8.117917e-04	0.0	4.083105e-04	8.024722e-04	0.0	3.957168e-04	7.929527e-04	0.0	3.832750e-04	7.832356e-04	0.0	3.709882e-04	7.733233e-04	0.0	3.588593e-04	7.632183e-04	0.0	3.468915e-04	7.529231e-04	0.0	3.350876e-04	7.424402e-04	0.0	3.234508e-04	7.317723e-04	0.0	3.119838e-04	7.209220e-04	0.0	3.006895e-04	7.098920e-04	0.0	2.895707e-04	6.986851e-04	0.0	2.786302e-04	6.873041e-04	0.0	2.678708e-04	6.757518e-04	0.0	2.572951e-04	6.640311e-04	0.0	2.469057e-04	6.521449e-04	0.0	2.367052e-04	6.400962e-04	0.0	2.266963e-04	6.278880e-04	0.0	2.168813e-04	6.155232e-04	0.0	2.072627e-04	6.030051e-04	0.0	1.978429e-04	5.903367e-04	0.0	1.886243e-04	5.775212e-04	0.0	1.796091e-04	5.645617e-04	0.0	1.707997e-04	5.514615e-04	0.0	1.621981e-04	5.382239e-04	0.0	1.538066e-04	5.248522e-04	0.0	1.456272e-04	5.113496e-04	0.0	1.376620e-04	4.977196e-04	0.0	1.299130e-04	4.839656e-04	0.0	1.223820e-04	4.700910e-04	0.0	1.150710e-04	4.560992e-04	0.0	1.079818e-04	4.419937e-04	0.0	1.011162e-04	4.277781e-04	0.0	9.447582e-05	4.134558e-04	0.0	8.806237e-05	3.990306e-04	0.0	8.187744e-05	3.845058e-04	0.0	7.592257e-05	3.698853e-04	0.0	7.019924e-05	3.551726e-04	0.0	6.470889e-05	3.403713e-04	0.0	5.945287e-05	3.254852e-04	0.0	5.443251e-05	3.105180e-04	0.0	4.964905e-05	2.954734e-04	0.0	4.510368e-05	2.803552e-04	0.0	4.079754e-05	2.651671e-04	0.0	3.673169e-05	2.499130e-04	0.0	3.290716e-05	2.345965e-04	0.0	2.932490e-05	2.192216e-04	0.0	2.598579e-05	2.037920e-04	0.0	2.289068e-05	1.883117e-04	0.0	2.004033e-05	1.727844e-04	0.0	1.743545e-05	1.572140e-04	0.0	1.507669e-05	1.416045e-04	0.0	1.296464e-05	1.259597e-04	0.0	1.109983e-05	1.102835e-04	0.0	9.482717e-06	9.457981e-05	0.0	8.113710e-06	7.885255e-05	0.0	6.993147e-06	6.310563e-05	0.0	6.121308e-06	4.734299e-05	0.0	5.498411e-06	3.156855e-05	0.0	5.124610e-06	1.578624e-05	0.0	1.901785e-03	4.418788e-04	0.0	1.908649e-03	4.276668e-04	0.0	1.908793e-03	4.277353e-04	0.0	1.901928e-03	4.419495e-04	0.0	1.987682e-03	1.090387e-04	0.0	1.989281e-03	9.351229e-05	0.0	1.993557e-03	9.391852e-05	0.0	1.991951e-03	1.095124e-04	0.0	1.992604e-03	4.680863e-05	0.0	1.996895e-03	4.701198e-05	0.0	1.996029e-03	6.266441e-05	0.0	1.991742e-03	6.239336e-05	0.0	5.758289e-06	3.156034e-05	0.0	6.381025e-06	4.733068e-05	0.0	6.221199e-06	4.733826e-05	0.0	5.598364e-06	3.156539e-05	0.0	7.252637e-06	6.308922e-05	0.0	7.092950e-06	6.309932e-05	0.0	9.741560e-06	9.455522e-05	0.0	1.135825e-05	1.102548e-04	0.0	1.119922e-05	1.102725e-04	0.0	9.582272e-06	9.457035e-05	0.0	1.664177e-05	1.413806e-04	0.0	1.899680e-05	1.569655e-04	0.0	1.834957e-05	1.570685e-04	0.0	1.599299e-05	1.414734e-04	0.0	2.624035e-05	2.037390e-04	0.0	2.957858e-05	2.191646e-04	0.0	2.942247e-05	2.191997e-04	0.0	2.608370e-05	2.037716e-04	0.0	4.766047e-05	2.470922e-04	0.0	4.350166e-05	2.481656e-04	0.0	3.970387e-05	2.329562e-04	0.0	4.387911e-05	2.319486e-04	0.0	4.104824e-05	2.650982e-04	0.0	4.535326e-05	2.802823e-04	0.0	4.519967e-05	2.803272e-04	0.0	4.089396e-0
[...]
POINT_DATA 4325

SCALARS Conservative_1 double 1
LOOKUP_TABLE default
3.945234e+02	3.945242e+02	3.945254e+02	3.945274e+02	3.945305e+02	3.945356e+02	3.945437e+02	3.945567e+02	3.945776e+02	3.946114e+02	3.946662e+02	3.948330e+02	3.950112e+02	3.952016e+02	3.954045e+02	3.956201e+02	3.958487e+02	3.960908e+02	3.963472e+02	3.966182e+02	3.969045e+02	3.972068e+02	3.975257e+02	3.978620e+02	3.982165e+02	3.985902e+02	3.989840e+02	3.993992e+02	3.998371e+02	4.002993e+02	4.007878e+02	4.013048e+02	4.018534e+02	4.024359e+02	4.030561e+02	4.037464e+02	4.037538e+02	4.037946e+02	4.038633e+02	4.039586e+02	4.040790e+02	4.042225e+02	4.043868e+02	4.045690e+02	4.047657e+02	4.049733e+02	4.051873e+02	4.054035e+02	4.056174e+02	4.058244e+02	4.060204e+02	4.062016e+02	4.063654e+02	4.065092e+02	4.066316e+02	4.067318e+02	4.068096e+02	4.068653e+02	4.068993e+02	4.069160e+02	4.062483e+02	4.056861e+02	4.051867e+02	4.047395e+02	4.043369e+02	4.039724e+02	4.036403e+02	4.033363e+02	4.030568e+02	4.027985e+02	4.025589e+02	4.023357e+02	4.021271e+02	4.019313e+02	4.017470e+02	4.015728e+02	4.014078e+02	4.012510e+02	4.011016e+02	4.009591e+02	4.008229e+02	4.006926e+02	4.005681e+02	4.004494e+02	4.003358e+02	4.002980e+02	4.002746e+02	4.002600e+02	4.002509e+02	4.002453e+02	4.002417e+02	4.002395e+02	4.002381e+02	4.002373e+02	4.002367e+02	4.002361e+02	4.002365e+02	4.002389e+02	4.002436e+02	4.002506e+02	4.002598e+02	4.002714e+02	4.002852e+02	4.003011e+02	4.003188e+02	4.003383e+02	4.003593e+02	4.003816e+02	4.004051e+02	4.004295e+02	4.004547e+02	4.004806e+02	4.005069e+02	4.005336e+02	4.005605e+02	4.005874e+02	4.006141e+02	4.006405e+02	4.006663e+02	4.006912e+02	4.007148e+02	4.007369e+02	4.007571e+02	4.007749e+02	4.007901e+02	4.008024e+02	4.008117e+02	4.008177e+02	4.008206e+02	4.008205e+02	4.008176e+02	4.008122e+02	4.008048e+02	4.007959e+02	4.007859e+02	4.007753e+02	4.007648e+02	4.007546e+02	4.007454e+02	4.007373e+02	4.007308e+02	4.007260e+02	4.007229e+02	4.007216e+02	4.007218e+02	4.007232e+02	4.007252e+02	4.007273e+02	4.007287e+02	4.007284e+02	4.007257e+02	4.007195e+02	4.007090e+02	4.006935e+02	4.006726e+02	4.006458e+02	4.006132e+02	4.005750e+02	4.005314e+02	4.004832e+02	4.004308e+02	4.003751e+02	4.003167e+02	4.002563e+02	4.001943e+02	4.001311e+02	4.000670e+02	4.000022e+02	3.999367e+02	3.998706e+02	3.998037e+02	3.997361e+02	3.996676e+02	3.995982e+02	3.995278e+02	3.994564e+02	3.993840e+02	3.993106e+02	3.992362e+02	3.991609e+02	3.990848e+02	3.990079e+02	3.989304e+02	3.988523e+02	3.987737e+02	3.986948e+02	3.986156e+02	3.985363e+02	3.984570e+02	3.983777e+02	3.982986e+02	3.982198e+02	3.981413e+02	3.980631e+02	3.979855e+02	3.979084e+02	3.978320e+02	3.977562e+02	3.976811e+02	3.976068e+02	3.975333e+02	3.974606e+02	3.973889e+02	3.973180e+02	3.972481e+02	3.971791e+02	3.971111e+02	3.970441e+02	3.969780e+02	3.969130e+02	3.968490e+02	3.967860e+02	3.967241e+02	3.966632e+02	3.966033e+02	3.965444e+02	3.964866e+02	3.964298e+02	3.963740e+02	3.963192e+02	3.962654e+02	3.962127e+02	3.961609e+02	3.961102e+02	3.960604e+02	3.960115e+02	3.959637e+02	3.959167e+02	3.958708e+02	3.958257e+02	3.957816e+02	3.957383e+02	3.956960e+02	3.956545e+02	3.956139e+02	3.955742e+02	3.955353e+02	3.954973e+02	3.954601e+02	3.954237e+02	3.953882e+02	3.953534e+02	3.953194e+02	3.952862e+02	3.952538e+02	3.952221e+02	3.951912e+02	3.951611e+02	3.951316e+02	3.951029e+02	3.950750e+02	3.950477e+02	3.950211e+02	3.949953e+02	3.949701e+02	3.949456e+02	3.949218e+02	3.948987e+02	3.948762e+02	3.948544e+02	3.948333e+02	3.948128e+02	3.947930e+02	3.947739e+02	3.947554e+02	3.947375e+02	3.947203e+02	3.947037e+02	3.946877e+02	3.946724e+02	3.946577e+02	3.946436e+02	3.946301e+02	3.946173e+02	3.946052e+02	3.945936e+02	3.945828e+02	3.945726e+02	3.945631e+02	3.945544e+02	3.945464e+02	3.945393e+02	3.945330e+02	3.945276e+02	3.945231e+02	3.945196e+02	3.945172e+02	3.945157e+02	3.945153e+02	3.945157e+02	3.945169e+02	3.945188e+02	3.945214e+02	4.007755e+02	4.007577e+02	4.007573e+02	4.007751e+02	4.003334e+02	4.003224e+02	4.002986e+02	4.003098e+02	4.003019e+02	4.002780e+02	4.002827e+02	4.003067e+02	3.945209e+02	3.945189e+02	3.945177e+02	3.945196e+02	3.945178e+02	3.945165e+02	3.945179e+02	3.945193e+02	3.945180e+02	3.945166e+02	3.945361e+02	3.945405e+02	3.945352e+02	3.945307e+02	3.945486e+02	3.945565e+02	3.945552e+02	3.945473e+02	3.946651e+02	3.946298e+02	3.946204e+02	3.946558e+02	3.945849e+02	3.945957e+02	3.945944e+02	3.945836e+02	3.946060e+02	3.947643e+02	3.947292e+02	3.947146e+02	3.947497e+02	3.946732e+02	3.946585e+02	3.947211e+02	3.947045e+02	3.947942e+02	3.947724e+02	3.947552e+02	3.947770e+02	3.947938e+02	3.948136e+02	3.948995e+02	3.948770e+02	3.951169e+02	3.950611e+02	3.950367e+02	3.950925e+02	3.950264e+02	3.950020e+02	3.949961e+02	3.950219e+02	3.950770e+02	3.951050e+02	3.951037e+02	3.950758e+02	3.951933e+02	3.952242e+02	3.952229e+02	3.951920e+02	4.020171e+02	4.015761e+02	4.017195e+02	3.953902e+02	3.954258e+02	3.954245e+02	3.953889e+02	3.958495e+02	3.957174e+02	3.958148e+02	3.957836e+02	3.958277e+02	3.958265e+02	3.957823e+02	3.958715e+02	3.962138e+02	3.961935e+02	3.961428e+02	3.961632e+02	3.961617e+02	3.961109e+02	3.963500e+02	3.963178e+02	3.962653e+02	3.962977e+02	3.963199e+02	3.963747e+02	3.964305e+02	3.963759e+02	3.964317e+02	3.964885e+02	3.964873e+02	3.966051e+02	3.966650e+02	3.966639e+02	3.966040e+02	3.968045e+02	3.968659e+02	3.968354e+02	3.967739e+02	3.972515e+02	3.973214e+02	3.973197e+02	3.972498e+02	3.973895e+02	3.974613e+02	3.974623e+02	3.975349e+02	3.975339e+02	3.976084e+02	3.976827e+02	3.976817e+02	3.976074e+02	3.978727e+02	3.978570e+02	3.977817e+02	3.977976e+02	3.977577e+02	3.977568e+02	3.979870e+02	3.980646e+02	3.980637e+02	3.979861e+02	3.983803e+02	3.984595e+02	3.984583e+02	3.983790e+02	3.987759e+02	3.988544e+02	3.988533e+02	3.987748e+02	3.994572e+02	3.995286e+02	3.995281e+02	3.994567e+02	3.998226e+02	3.997557e+02	3.997678e+02	3.998343e+02	3.998044e+02	3.998713e+02	3.998708e+02	3.998040e+02	4.000691e+02	4.001330e+02	4.001322e+02	4.000682e+02	4.001316e+02	4.000676e+02	4.002567e+02	4.003171e+02	4.003169e+02	4.002565e+02	4.005315e+02	4.005750e+02	4.006479e+02	4.006747e+02	4.006738e+02	4.006470e+02	4.006134e+02	4.006459e+02	4.006459e+02	4.006133e+02	4.007291e+02	4.007278e+02	4.007275e+02	4.007288e+02	4.007258e+02	4.007238e+02	4.007234e+02	4.007254e+02	4.007525e+02	4.007407e+02	4.007399e+02	4.007510e+02	4.007311e+02	4.007376e+02	4.007381e+02	4.007461e+02	4.007457e+02	4.002720e+02	4.002604e+02	4.003025e+02	4.002866e+02	4.002857e+02	4.003016e+02	4.002729e+02	4.002613e+02	4.003194e+02	4.003396e+02	4.003202e+02	4.003388e+02	4.003383e+02	4.003554e+02	4.003778e+02	4.003612e+02	4.004559e+02	4.004307e+02	4.004300e+02	4.004552e+02	4.005615e+02	4.005347e+02	4.005340e+02	4.005609e+02	4.006151e+02	4.005883e+02	4.005878e+02	4.006145e+02	4.008293e+02	4.008132e+02	4.007661e+02	4.007156e+02	4.006920e+02	4.006915e+02	4.007151e+02	4.007971e+02	4.008060e+02	4.008054e+02	4.007965e+02	4.008178e+02	4.008124e+02	4.007903e+02	4.008024e+02	4.007861e+02	4.007749e+02	4.007918e+02	3.991613e+02	3.992365e+02	4.004309e+02	4.004832e+02	3.951619e+02	4.008330e+02	4.008270e+02	4.008220e+02	4.008282e+02	4.038511e+02	4.042455e+02	4.041103e+02	3.987741e+02	3.988527e+02	3.986193e+02	3.986418e+02	3.988883e+02	4.007260e+02	4.007288e+02	4.007286e+02	4.007258e+02	4.013962e+02	4.015106e+02	4.014243e+02	3.963115e+02	3.964664e+02	3.965642e+02	4.007657e+02	4.007254e+02	4.007573e+02	3.984575e+02	3.983782e+02	3.952546e+02	3.952870e+02	4.007549e+02	4.008183e+02	4.008122e+02	4.008119e+02	4.008179e+02	3.971125e+02	3.974339e+02	3.972218e+02	3.972542e+02	3.973240e+02	3.964307e+02	3.965259e+02	3.962476e+02	3.945870e+02	3.945978e+02	3.979090e+02	4.006671e+02	4.006666e+02	4.024475e+02	4.022574e+02	4.024194e+02	3.965367e+02	3.966505e+02	3.967139e+02	3.967483e+02	3.966845e+02	3.968366e+02	3.969816e+02	3.970476e+02	3.970458e+02	3.969798e+02	4.009391e+02	4.009934e+02	4.009881e+02	3.949327e+02	3.949551e+02	3.949334e+02	3.949110e+02	4.008050e+02	4.007961e+02	3.951337e+02	3.951324e+02	4.007237e+02	4.007268e+02	4.007263e+02	4.007232e+02	3.960889e+02	3.959913e+02	3.975486e+02	4.034849e+02	4.031254e+02	4.032589e+02	3.953542e+02	4.012239e+02	4.009959e+02	4.008489e+02	4.018355e+02	4.020248e+02	3.960695e+02	3.963278e+02	3.961688e+02	4.038103e+02	4.035357e+02	4.034096e+02	4.008315e+02	4.008318e+02	4.008817e+02	3.986513e+02	3.988516e+02	4.006849e+02	4.007315e+02	4.006320e+02	3.985693e+02	3.986477e+02	3.986353e+02	3.985566e+02	4.022737e+02	4.018734e+02	4.020683e+02	4.003410e+02	4.003215e+02	4.005108e+02	4.004846e+02	4.004828e+02	4.005091e+02	4.007446e+02	4.011100e+02	4.008565e+02	4.024775e+02	4.027488e+02	4.026662e+02	3.965087e+02	3.967258e+02	3.968210e+02	4.032588e+02	4.031151e+02	4.024296e+02	4.030087e+02	4.027588e+02	4.008687e+02	4.008784e+02	4.008336e+02	3.957702e+02	3.959236e+02	4.032332e+02	4.029225e+02	4.030647e+02	3.946181e+02	3.946310e+02	3.986037e+02	3.983375e+02	3.982438e+02	4.005264e+02	4.003930e+02	4.003382e+02	4.012244e+02	4.013699e+02	4.010618e+02	4.013279e+02	4.011514e+02	4.011727e+02	4.008686e+02	4.008365e+02	4.009470e+02	4.041697e+02	4.038478e+02	4.038811e+02	3.995989e+02	3.995985e+02	4.021140e+02	4.023220e+02	4.022556e+02	3.977635e+02	3.976762e+02	3.975690e+02	3.956980e+02	3.957404e+02	3.957391e+02	3.956968e+02	4.006778e+02	4.007721e+02	4.007367e+02	3.975016e+02	3.974355e+02	3.975808e+02	3.989308e+02	3.962151e+02	3.949722e+02	3.949974e+02	3.949709e+02	3.945218e+02	3.945252e+02	3.945239e+02	3.945205e+02	4.007372e+02	3.952816e+02	3.952515e+02	3.953069e+02	3.953369e+02	3.976842e+02	3.977592e+02	3.949319e+02	3.949197e+02	3.950569e+02	4.006414e+02	4.006409e+02	3.945640e+02	3.945734e+02	4.008181e+02	4.008210e+02	4.008207e+02	4.063820e+02	4.032140e+02	4.032538e+02	4.027315e+02	3.955494e+02	3.955865e+02	3.955525e+02	3.955154e+02	3.995849e+02	3.996216e+02	3.997065e+02	4.004437e+02	4.004386e+02	4.003843e+02	4.003902e+02	4.006727e+02	4.006726e+02	3.945161e+02	4.008030e+02	4.007668e+02	4.007975e+02	4.007223e+02	4.007219e+02	3.954643e+02	3.954093e+02	3.953762e+02	3.954313e+02	3.953439e+02	3.953095e+02	3.952780e+02	3.953124e+02	3.950485e+02	4.007554e+02	3.997004e+02	3.997209e+02	3.997876e+02	4.002683e+02	4.002076e+02	4.002159e+02	4.002759e+02	3.961464e+02	3.961136e+02	3.960650e+02	3.960979e+02	3.954981e+02	3.955927e+02	4.002520e+02	4.002511e+02	3.947780e+02	3.947972e+02	3.947951e+02	3.947760e+02	3.982211e+02	3.983000e+02	3.982992e+02	3.982203e+02	4.005316e+02	4.005751e+02	3.945414e+02	3.945401e+02	3.945746e+02	3.945684e+02	3.945905e+02	3.945967e+02	4.003619e+02	4.003606e+02	3.986168e+02	3.986959e+02	3.986952e+02	3.986161e+02	4.006938e+02	4.007094e+02	4.007092e+02	4.006937e+02	3.956688e+02	3.956477e+02	3.956080e+02	3.956292e+02	4.005829e+02	4.005592e+02	4.005294e+02	4.005541e+02	3.946885e+02	3.946745e+02	3.946898e+02	3.948149e+02	3.948354e+02	3.948341e+02	3.946073e+02	3.946194e+02	3.990852e+02	3.990083e+02	3.970447e+02	3.969787e+02	3.947383e+02	3.947562e+02	4.004137e+02	4.003977e+02	3.945284e+02	3.945338e+02	3.945297e+02	3.945351e+02	4.014880e+02	4.013977e+02	4.015624e+02	3.994926e+02	3.994215e+02	3.994447e+02	3.995152e+02	3.992609e+02	3.993345e+02	3.993252e+02	3.992514e+02	3.968497e+02	3.969137e+02	3.967879e+02	3.968508e+02	3.967867e+02	3.961629e+02	3.962146e+02	3.962134e+02	4.007196e+02	4.007143e+02	4.007261e+02	4.007234e+02	4.007121e+02	3.955361e+02	3.955750e+02	3.954994e+02	3.955374e+02	3.954981e+02	4.002991e+02	4.002753e+02	3.978335e+02	3.978325e+02	3.947787e+02	3.947921e+02	3.947357e+02	3.947223e+02	4.009260e+02	4.009764e+02	4.009469e+02	3.949464e+02	3.949239e+02	3.949477e+02	3.949226e+02	3.977493e+02	3.977233e+02	3.976497e+02	3.976761e+02	3.948565e+02	3.948783e+02	3.948552e+02	3.953215e+02	3.953555e+02	3.953202e+02	4.008267e+02	4.008179e+02	4.008119e+02	4.008208e+02	3.947747e+02	3.960623e+02	3.961121e+02	3.960611e+02	4.001945e+02	4.001948e+02	4.001313e+02	3.958728e+02	3.962674e+02	3.963211e+02	3.962662e+02	4.000923e+02	4.000290e+02	4.000457e+02	4.001080e+02	4.004157e+02	4.004382e+02	4.004586e+02	4.004366e+02	3.945653e+02	3.996683e+02	3.996679e+02	3.960135e+02	3.960123e+02	4.003752e+02	4.002442e+02	3.952559e+02	3.952883e+02	4.007225e+02	4.007220e+02	3.946471e+02	3.946118e+02	3.946038e+02	3.946392e+02	4.004056e+02	4.003821e+02	4.002296e+02	4.001694e+02	4.002319e+02	3.973905e+02	3.973187e+02	4.002395e+02	3.949486e+02	3.948112e+02	3.949518e+02	3.956553e+02	4.007316e+02	4.005132e+02	4.004912e+02	4.004815e+02	3.981426e+02	3.981418e+02	4.008208e+02	3.967248e+02	3.997364e+02	4.006936e+02	3.957296e+02	3.957719e+02	3.957588e+02	3.957165e+02	3.956160e+02	3.956566e+02	3.956147e+02	3.991619e+02	3.992371e+02	4.007376e+02	4.004617e+02	4.004859e+02	4.005051e+02	3.946444e+02	3.967259e+02	3.993109e+02	3.993843e+02	4.007907e+02	3.980875e+02	3.980488e+02	3.979730e+02	3.980125e+02	4.007637e+02	4.007733e+02	4.007484e+02	4.003598e+02	3.954609e+02	4.002743e+02	4.002627e+02	4.008242e+02	4.008133e+02	4.008040e+02	4.008153e+02	4.001456e+02	4.000826e+02	4.001546e+02	3.999370e+02	4.000024e+02	3.959758e+02	3.960236e+02	3.960186e+02	3.959708e+02	3.949008e+02	4.007091e+02	3.948120e+02	3.948292e+02	3.948470e+02	4.002024e+02	4.001400e+02	4.000672e+02	4.008027e+02	4.002379e+02	4.002375e+02	4.002366e+02	4.002370e+02	3.972487e+02	3.950862e+02	3.950515e+02	4.007861e+02	3.980247e+02	3.979484e+02	4.007785e+02	4.007708e+02	4.007910e+02	4.007986e+02	3.997387e+02	3.998062e+02	3.998051e+02	3.997375e+02	3.965451e+02	3.960038e+02	3.959580e+02	3.960114e+02	3.960570e+02	3.977029e+02	3.977723e+02	3.976468e+02	3.950498e+02	4.007650e+02	3.985368e+02	3.945747e+02	3.958297e+02	3.958747e+02	3.984341e+02	3.985118e+02	3.984909e+02	3.984126e+02	4.007600e+02	4.007631e+02	4.007493e+02	4.007478e+02	3.984686e+02	3.985455e+02	3.945222e+02	3.990089e+02	3.990858e+02	3.971872e+02	3.972544e+02	3.972257e+02	3.971582e+02	3.971118e+02	3.960643e+02	3.961141e+02	3.959657e+02	3.959644e+02	3.994580e+02	3.995294e+02	3.955014e+02	3.955394e+02	4.005108e+02	4.005074e+02	4.004810e+02	3.993114e+02	3.993848e+02	3.979099e+02	4.007230e+02	4.007244e+02	4.007197e+02	3.971128e+02	3.983344e+02	3.982564e+02	3.982790e+02	3.983564e+02	3.951631e+02	3.946457e+02	3.946598e+02	3.946323e+02	3.951071e+02	3.951358e+02	4.007655e+02	3.999374e+02	4.000028e+02	4.008030e+02	4.007865e+02	3.950232e+02	4.007756e+02	4.007760e+02	3.966266e+02	3.965953e+02	3.965378e+02	3.965693e+02	3.969148e+02	3.959175e+02	4.004311e+02	4.004834e+02	4.005367e+02	4.004896e+02	4.004939e+02	4.005403e+02	3.998887e+02	3.999000e+02	3.964335e+02	3.964903e+02	3.945228e+02	3.945233e+02	3.945200e+02	3.945195e+02	4.002451e+02	4.002404e+02	4.004063e+02	4.003829e+02	3.989314e+02	3.971798e+02	3.971808e+02	4.007761e+02	4.007584e+02	3.947575e+02	3.947058e+02	3.947224e+02	3.946403e+02	3.946266e+02	3.946151e+02	3.946288e+02	3.985376e+02	3.946077e+02	3.946071e+02	3.945722e+02	3.945731e+02	3.965463e+02	4.004817e+02	3.954622e+02	3.989287e+02	3.990044e+02	3.989761e+02	3.988995e+02	3.989367e+02	3.988588e+02	3.988632e+02	3.989410e+02	3.953235e+02	3.953575e+02	4.008172e+02	4.008082e+02	4.008059e+02	4.008150e+02	3.948375e+02	3.948586e+02	4.006679e+02	4.006423e+02	4.003095e+02	4.002938e+02	4.002902e+02	4.003060e+02	3.947396e+02	4.007485e+02	4.007271e+02	4.007223e+02	4.007440e+02	4.008212e+02	3.955763e+02	3.949029e+02	3.949260e+02	4.008128e+02	3.961648e+02	3.962166e+02	4.003755e+02	3.948341e+02	3.948545e+02	3.948461e+02	3.948256e+02	3.945229e+02	3.945210e+02	3.945235e+02	3.959132e+02	3.959248e+02	3.958799e+02	3.959187e+02	4.006160e+02	4.005893e+02	4.006692e+02	4.006436e+02	4.006927e+02	4.007163e+02	4.007383e+02	4.007771e+02	4.007594e+02	4.007913e+02	4.008036e+02	4.008128e+02	4.008188e+02	4.008217e+02	4.008216e+02	4.008187e+02	4.008134e+02	4.007981e+02	4.008070e+02	4.007872e+02	4.007767e+02	4.007662e+02	4.007561e+02	4.007469e+02	4.007389e+02	4.007324e+02	4.007275e+02	4.007241e+02	4.007256e+02	4.007231e+02	4.007244e+02	4.007263e+02	4.007283e+02	4.007295e+02	4.007292e+02	4.007263e+02	4.007199e+02	4.006940e+02	4.007096e+02	4.006728e+02	4.006461e+02	4.006135e+02	4.005752e+02	4.005318e+02	4.004836e+02	4.004314e+02	4.003175e+02	4.003758e+02	4.002572e+02	4.001952e+02	4.000705e+02	4.001343e+02	3.999380e+02	4.000034e+02	3.998719e+02	3.997368e+02	3.997405e+02	3.998080e+02	3.995997e+02	3.996691e+02	3.994593e+02	3.995306e+02	3.993857e+02	3.993123e+02	3.992380e+02	3.991628e+02	3.990867e+02	3.990099e+02	3.989324e+02	3.987777e+02	3.988561e+02	3.986971e+02	3.986180e+02	3.985388e+02	3.983823e+02	3.984615e+02	3.983013e+02	3.982225e+02	3.981440e+02	3.980660e+02	3.979884e+02	3.979114e+02	3.978350e+02	3.976867e+02	3.977616e+02	3.976100e+02	3.975365e+02	3.974639e+02	3.973922e+02	3.972585e+02	3.973283e+02	3.971146e+02	3.971825e+02	3.969844e+02	3.970504e+02	3.969166e+02	3.968526e+02	3.967897e+02	3.967278e+02	3.966669e+02	3.966070e+02	3.965481e+02	3.964366e+02	3.964933e+02	3.963778e+02	3.963230e+02	3.962693e+02	3.961679e+02	3.962196e+02	3.960674e+02	3.961172e+02	3.960155e+02	3.959676e+02	3.959838e+02	3.960316e+02	3.959207e+02	3.958329e+02	3.958779e+02	3.957856e+02	3.957423e+02	3.957000e+02	3.956586e+02	3.956180e+02	3.955783e+02	3.955046e+02	3.955426e+02	3.954642e+02	3.954278e+02	3.953922e+02	3.953268e+02	3.953607e+02	3.952903e+02	3.952579e+02	3.952263e+02	3.951954e+02	3.951652e+02	3.951103e+02	3.951390e+02	3.950791e+02	3.950518e+02	3.950253e+02	3.949994e+02	3.949743e+02	3.949498e+02	3.949062e+02	3.949293e+02	3.948804e+02	3.948408e+02	3.948619e+02	3.948170e+02	3.947814e+02	3.948005e+02	3.947595e+02	3.947417e+02	3.947244e+02	3.947078e+02	3.946919e+02	3.946766e+02	3.946619e+02	3.946478e+02	3.946343e+02	3.946215e+02	3.946094e+02	3.945903e+02	3.946012e+02	3.945768e+02	3.945674e+02	3.945586e+02	3.945507e+02	3.945435e+02	3.945372e+02	3.945318e+02	3.945273e+02	3.945239e+02	3.945214e+02	3.945174e+02	3.945281e+02	3.945286e+02	3.945198e+02	3.945262e+02	3.945243e+02	3.945255e+02	4.002393e+02	4.002389e+02	4.002418e+02	4.002465e+02	4.002534e+02	4.002765e+02	4.002650e+02	4.002880e+02	4.003038e+02	4.003430e+02	4.003237e+02	4.003639e+02	4.003841e+02	4.004075e+02	4.004319e+02	4.004570e+02	4.005080e+02	4.005135e+02	4.004874e+02	4.005625e+02	4.005357e+02	4.006174e+02	4.005908e+02	4.006713e+02	4.006458e+02	4.006940e+02	4.007175e+02	4.007394e+02	4.007787e+02	4.007610e+02	4.007922e+02	4.008044e+02	4.008136e+02	4.008196e+02	4.008225e+02	4.008224e+02	4.008196e+02	4.008143e+02	4.007998e+02	4.008085e+02	4.007883e+02	4.007778e+02	4.007674e+02	4.007573e+02	4.007481e+02	4.007401e+02	4.007336e+02	4.007287e+02	4.007259e+02	4.007275e+02	4.007242e+02	4.007254e+02	4.007272e+02	4.007291e+02	4.007302e+02	4.007297e+02	4.007267e+02	4.007203e+02	4.006944e+02	4.007101e+02	4.006730e+02	4.006462e+02	4.006137e+02	4.005755e+02	4.005321e+02	4.004840e+02	4.004318e+02	4.003181e+02	4.003763e+02	4.002578e+02	4.001960e+02	4.000728e+02	4.001365e+02	3.999390e+02	4.000044e+02	3.998730e+02	3.997434e+02	3.998108e+02	3.996009e+02	3.996702e+02	3.994614e+02	3.995326e+02	3.993870e+02	3.993137e+02	3.992394e+02	3.991643e+02	3.990883e+02	3.990115e+02	3.989341e+02	3.987805e+02	3.986989e+02	3.986199e+02	3.985407e+02	3.983856e+02	3.984647e+02	3.983034e+02	3.982246e+02	3.981462e+02	3.980682e+02	3.979907e+02	3.979137e+02	3.978373e+02	3.976906e+02	3.977655e+02	3.976125e+02	3.975391e+02	3.974665e+02	3.973948e+02	3.972654e+02	3.973351e+02	3.971173e+02	3.971853e+02	3.969889e+02	3.970548e+02	3.969194e+02	3.968555e+02	3.967926e+02	3.967307e+02	3.966698e+02	3.966099e+02	3.965511e+02	3.964414e+02	3.964981e+02	3.963808e+02	3.963261e+02	3.962724e+02	3.961729e+02	3.962246e+02	3.960724e+02	3.961221e+02	3.959967e+02	3.960445e+02	3.959239e+02	3.958379e+02	3.958830e+02	3.957887e+02	3.957455e+02	3.957032e+02	3.956618e+02	3.956212e+02	3.955815e+02	3.955098e+02	3.955478e+02	3.954674e+02	3.954310e+02	3.953955e+02	3.953320e+02	3.953659e+02	3.952936e+02	3.952612e+02	3.952295e+02	3.951986e+02	3.951685e+02	3.951156e+02	3.951443e+02	3.950824e+02	3.950551e+02	3.950286e+02	3.950027e+02	3.949775e+02	3.949531e+02	3.949114e+02	3.949346e+02	3.948837e+02	3.948672e+02	3.948203e+02	3.947867e+02	3.948058e+02	3.947628e+02	3.947450e+02	3.947278e+02	3.947112e+02	3.946952e+02	3