# vtk DataFile Version 3.0
vtk output
ASCII
DATASET UNSTRUCTURED_GRID
POINTS 0 double

CELLS 0	0

CELL_TYPES 0

POINT_DATA 0

SCALARS Pressure double 1
LOOKUP_TABLE default

VECTORS Velocity double

SCALARS Temperature double 1
LOOKUP_TABLE default

SCALARS Nu_Tilde double 1
LOOKUP_TABLE default

SCALARS Residual_Pressure double 1
LOOKUP_TABLE default

VECTORS Residual_Velocity double

SCALARS Residual_Temperature double 1
LOOKUP_TABLE default

SCALARS Residual_Nu_Tilde double 1
LOOKUP_TABLE default

SCALARS Pressure_Coefficient double 1
LOOKUP_TABLE default

SCALARS Laminar_Viscosity double 1
LOOKUP_TABLE default

VECTORS Skin_Friction_Coefficient double

SCALARS Heat_Flux double 1
LOOKUP_TABLE default

SCALARS Y_Plus double 1
LOOKUP_TABLE default

SCALARS Eddy_Viscosity double 1
LOOKUP_TABLE default

SCALARS Thermal_Conductivity double 1
LOOKUP_TABLE default
