# vtk DataFile Version 3.0
vtk output
ASCII
DATASET UNSTRUCTURED_GRID
POINTS 200 double
5.000000e-06	0.000000e+00	0.0	2.005000e-03	0.000000e+00	0.0	2.004875e-03	1.578624e-05	0.0	2.004502e-03	3.156855e-05	0.0	2.003879e-03	4.734299e-05	0.0	2.003007e-03	6.310563e-05	0.0	2.001886e-03	7.885255e-05	0.0	2.000517e-03	9.457981e-05	0.0	1.998900e-03	1.102835e-04	0.0	1.997035e-03	1.259597e-04	0.0	1.994923e-03	1.416045e-04	0.0	1.992565e-03	1.572140e-04	0.0	1.989960e-03	1.727844e-04	0.0	1.987109e-03	1.883117e-04	0.0	1.984014e-03	2.037920e-04	0.0	1.980675e-03	2.192216e-04	0.0	1.977093e-03	2.345965e-04	0.0	1.973268e-03	2.499130e-04	0.0	1.969202e-03	2.651671e-04	0.0	1.964896e-03	2.803552e-04	0.0	1.960351e-03	2.954734e-04	0.0	1.955567e-03	3.105180e-04	0.0	1.950547e-03	3.254852e-04	0.0	1.945291e-03	3.403713e-04	0.0	1.939801e-03	3.551726e-04	0.0	1.934077e-03	3.698853e-04	0.0	1.928123e-03	3.845058e-04	0.0	1.921938e-03	3.990306e-04	0.0	1.915524e-03	4.134558e-04	0.0	1.908884e-03	4.277781e-04	0.0	1.902018e-03	4.419937e-04	0.0	1.894929e-03	4.560992e-04	0.0	1.887618e-03	4.700910e-04	0.0	1.880087e-03	4.839656e-04	0.0	1.872338e-03	4.977196e-04	0.0	1.864373e-03	5.113496e-04	0.0	1.856193e-03	5.248522e-04	0.0	1.847802e-03	5.382239e-04	0.0	1.839200e-03	5.514615e-04	0.0	1.830391e-03	5.645617e-04	0.0	1.821376e-03	5.775212e-04	0.0	1.812157e-03	5.903367e-04	0.0	1.802737e-03	6.030051e-04	0.0	1.793119e-03	6.155232e-04	0.0	1.783304e-03	6.278880e-04	0.0	1.773295e-03	6.400962e-04	0.0	1.763094e-03	6.521449e-04	0.0	1.752705e-03	6.640311e-04	0.0	1.742129e-03	6.757518e-04	0.0	1.731370e-03	6.873041e-04	0.0	1.720429e-03	6.986851e-04	0.0	1.709311e-03	7.098920e-04	0.0	1.698016e-03	7.209220e-04	0.0	1.686549e-03	7.317723e-04	0.0	1.674912e-03	7.424402e-04	0.0	1.663109e-03	7.529231e-04	0.0	1.651141e-03	7.632183e-04	0.0	1.639012e-03	7.733233e-04	0.0	1.626725e-03	7.832356e-04	0.0	1.614283e-03	7.929527e-04	0.0	1.601689e-03	8.024722e-04	0.0	1.588947e-03	8.117917e-04	0.0	1.576059e-03	8.209089e-04	0.0	1.563029e-03	8.298215e-04	0.0	1.549860e-03	8.385272e-04	0.0	1.536555e-03	8.470240e-04	0.0	1.523117e-03	8.553097e-04	0.0	1.509550e-03	8.633823e-04	0.0	1.495858e-03	8.712396e-04	0.0	1.482043e-03	8.788799e-04	0.0	1.468109e-03	8.863011e-04	0.0	1.454060e-03	8.935014e-04	0.0	1.439899e-03	9.004790e-04	0.0	1.425630e-03	9.072323e-04	0.0	1.411256e-03	9.137594e-04	0.0	1.396780e-03	9.200588e-04	0.0	1.382207e-03	9.261288e-04	0.0	1.367540e-03	9.319681e-04	0.0	1.352783e-03	9.375751e-04	0.0	1.337939e-03	9.429485e-04	0.0	1.323012e-03	9.480868e-04	0.0	1.308005e-03	9.529889e-04	0.0	1.292923e-03	9.576535e-04	0.0	1.277770e-03	9.620794e-04	0.0	1.262548e-03	9.662655e-04	0.0	1.247262e-03	9.702108e-04	0.0	1.231916e-03	9.739143e-04	0.0	1.216513e-03	9.773751e-04	0.0	1.201058e-03	9.805923e-04	0.0	1.185554e-03	9.835651e-04	0.0	1.170004e-03	9.862928e-04	0.0	1.154414e-03	9.887747e-04	0.0	1.138786e-03	9.910102e-04	0.0	1.123125e-03	9.929987e-04	0.0	1.107435e-03	9.947397e-04	0.0	1.091719e-03	9.962328e-04	0.0	1.075981e-03	9.974776e-04	0.0	1.060226e-03	9.984739e-04	0.0	1.044457e-03	9.992213e-04	0.0	1.028678e-03	9.997196e-04	0.0	1.012893e-03	9.999688e-04	0.0	9.971066e-04	9.999688e-04	0.0	9.813219e-04	9.997196e-04	0.0	9.655430e-04	9.992213e-04	0.0	9.497740e-04	9.984739e-04	0.0	9.340187e-04	9.974776e-04	0.0	9.182811e-04	9.962328e-04	0.0	9.025652e-04	9.947397e-04	0.0	8.868747e-04	9.929987e-04	0.0	8.712137e-04	9.910102e-04	0.0	8.555861e-04	9.887747e-04	0.0	8.399956e-04	9.862928e-04	0.0	8.244463e-04	9.835651e-04	0.0	8.089421e-04	9.805923e-04	0.0	7.934866e-04	9.773751e-04	0.0	7.780839e-04	9.739143e-04	0.0	7.627377e-04	9.702108e-04	0.0	7.474519e-04	9.662655e-04	0.0	7.322303e-04	9.620794e-04	0.0	7.170767e-04	9.576535e-04	0.0	7.019948e-04	9.529889e-04	0.0	6.869885e-04	9.480868e-04	0.0	6.720614e-04	9.429485e-04	0.0	6.572172e-04	9.375751e-04	0.0	6.424598e-04	9.319681e-04	0.0	6.277927e-04	9.261288e-04	0.0	6.132196e-04	9.200588e-04	0.0	5.987441e-04	9.137594e-04	0.0	5.843699e-04	9.072323e-04	0.0	5.701006e-04	9.004790e-04	0.0	5.559396e-04	8.935014e-04	0.0	5.418905e-04	8.863011e-04	0.0	5.279569e-04	8.788799e-04	0.0	5.141421e-04	8.712396e-04	0.0	5.004497e-04	8.633823e-04	0.0	4.868830e-04	8.553097e-04	0.0	4.734454e-04	8.470240e-04	0.0	4.601403e-04	8.385272e-04	0.0	4.469710e-04	8.298215e-04	0.0	4.339408e-04	8.209089e-04	0.0	4.210529e-04	8.117917e-04	0.0	4.083105e-04	8.024722e-04	0.0	3.957168e-04	7.929527e-04	0.0	3.832750e-04	7.832356e-04	0.0	3.709882e-04	7.733233e-04	0.0	3.588593e-04	7.632183e-04	0.0	3.468915e-04	7.529231e-04	0.0	3.350876e-04	7.424402e-04	0.0	3.234508e-04	7.317723e-04	0.0	3.119838e-04	7.209220e-04	0.0	3.006895e-04	7.098920e-04	0.0	2.895707e-04	6.986851e-04	0.0	2.786302e-04	6.873041e-04	0.0	2.678708e-04	6.757518e-04	0.0	2.572951e-04	6.640311e-04	0.0	2.469057e-04	6.521449e-04	0.0	2.367052e-04	6.400962e-04	0.0	2.266963e-04	6.278880e-04	0.0	2.168813e-04	6.155232e-04	0.0	2.072627e-04	6.030051e-04	0.0	1.978429e-04	5.903367e-04	0.0	1.886243e-04	5.775212e-04	0.0	1.796091e-04	5.645617e-04	0.0	1.707997e-04	5.514615e-04	0.0	1.621981e-04	5.382239e-04	0.0	1.538066e-04	5.248522e-04	0.0	1.456272e-04	5.113496e-04	0.0	1.376620e-04	4.977196e-04	0.0	1.299130e-04	4.839656e-04	0.0	1.223820e-04	4.700910e-04	0.0	1.150710e-04	4.560992e-04	0.0	1.079818e-04	4.419937e-04	0.0	1.011162e-04	4.277781e-04	0.0	9.447582e-05	4.134558e-04	0.0	8.806237e-05	3.990306e-04	0.0	8.187744e-05	3.845058e-04	0.0	7.592257e-05	3.698853e-04	0.0	7.019924e-05	3.551726e-04	0.0	6.470889e-05	3.403713e-04	0.0	5.945287e-05	3.254852e-04	0.0	5.443251e-05	3.105180e-04	0.0	4.964905e-05	2.954734e-04	0.0	4.510368e-05	2.803552e-04	0.0	4.079754e-05	2.651671e-04	0.0	3.673169e-05	2.499130e-04	0.0	3.290716e-05	2.345965e-04	0.0	2.932490e-05	2.192216e-04	0.0	2.598579e-05	2.037920e-04	0.0	2.289068e-05	1.883117e-04	0.0	2.004033e-05	1.727844e-04	0.0	1.743545e-05	1.572140e-04	0.0	1.507669e-05	1.416045e-04	0.0	1.296464e-05	1.259597e-04	0.0	1.109983e-05	1.102835e-04	0.0	9.482717e-06	9.457981e-05	0.0	8.113710e-06	7.885255e-05	0.0	6.993147e-06	6.310563e-05	0.0	6.121308e-06	4.734299e-05	0.0	5.498411e-06	3.156855e-05	0.0	5.124610e-06	1.578624e-05	0.0	
CELLS 199	597
2	1	2	2	2	3	2	3	4	2	4	5	2	5	6	2	6	7	2	7	8	2	8	9	2	9	10	2	10	11	2	11	12	2	12	13	2	13	14	2	14	15	2	15	16	2	16	17	2	17	18	2	18	19	2	19	20	2	20	21	2	21	22	2	22	23	2	23	24	2	24	25	2	25	26	2	26	27	2	27	28	2	28	29	2	29	30	2	30	31	2	31	32	2	32	33	2	33	34	2	34	35	2	35	36	2	36	37	2	37	38	2	38	39	2	39	40	2	40	41	2	41	42	2	42	43	2	43	44	2	44	45	2	45	46	2	46	47	2	47	48	2	48	49	2	49	50	2	50	51	2	51	52	2	52	53	2	53	54	2	54	55	2	55	56	2	56	57	2	57	58	2	58	59	2	59	60	2	60	61	2	61	62	2	62	63	2	63	64	2	64	65	2	65	66	2	66	67	2	67	68	2	68	69	2	69	70	2	70	71	2	71	72	2	72	73	2	73	74	2	74	75	2	75	76	2	76	77	2	77	78	2	78	79	2	79	80	2	80	81	2	81	82	2	82	83	2	83	84	2	84	85	2	85	86	2	86	87	2	87	88	2	88	89	2	89	90	2	90	91	2	91	92	2	92	93	2	93	94	2	94	95	2	95	96	2	96	97	2	97	98	2	98	99	2	99	100	2	100	101	2	101	102	2	102	103	2	103	104	2	104	105	2	105	106	2	106	107	2	107	108	2	108	109	2	109	110	2	110	111	2	111	112	2	112	113	2	113	114	2	114	115	2	115	116	2	116	117	2	117	118	2	118	119	2	119	120	2	120	121	2	121	122	2	122	123	2	123	124	2	124	125	2	125	126	2	126	127	2	127	128	2	128	129	2	129	130	2	130	131	2	131	132	2	132	133	2	133	134	2	134	135	2	135	136	2	136	137	2	137	138	2	138	139	2	139	140	2	140	141	2	141	142	2	142	143	2	143	144	2	144	145	2	145	146	2	146	147	2	147	148	2	148	149	2	149	150	2	150	151	2	151	152	2	152	153	2	153	154	2	154	155	2	155	156	2	156	157	2	157	158	2	158	159	2	159	160	2	160	161	2	161	162	2	162	163	2	163	164	2	164	165	2	165	166	2	166	167	2	167	168	2	168	169	2	169	170	2	170	171	2	171	172	2	172	173	2	173	174	2	174	175	2	175	176	2	176	177	2	177	178	2	178	179	2	179	180	2	180	181	2	181	182	2	182	183	2	183	184	2	184	185	2	185	186	2	186	187	2	187	188	2	188	189	2	189	190	2	190	191	2	191	192	2	192	193	2	193	194	2	194	195	2	195	196	2	196	197	2	197	198	2	198	199	2	199	0	
CELL_TYPES 199
3	3	3	3	3	3	3	3	3	3	3	3	3	3	3	3	3	3	3	3	3	3	3	3	3	3	3	3	3	3	3	3	3	3	3	3	3	3	3	3	3	3	3	3	3	3	3	3	3	3	3	3	3	3	3	3	3	3	3	3	3	3	3	3	3	3	3	3	3	3	3	3	3	3	3	3	3	3	3	3	3	3	3	3	3	3	3	3	3	3	3	3	3	3	3	3	3	3	3	3	3	3	3	3	3	3	3	3	3	3	3	3	3	3	3	3	3	3	3	3	3	3	3	3	3	3	3	3	3	3	3	3	3	3	3	3	3	3	3	3	3	3	3	3	3	3	3	3	3	3	3	3	3	3	3	3	3	3	3	3	3	3	3	3	3	3	3	3	3	3	3	3	3	3	3	3	3	3	3	3	3	3	3	3	3	3	3	3	3	3	3	3	3	3	3	3	3	3	3	
POINT_DATA 200

SCALARS Conservative_1 double 1
LOOKUP_TABLE default
3.945234e+02	4.002367e+02	4.002361e+02	4.002365e+02	4.002389e+02	4.002436e+02	4.002506e+02	4.002598e+02	4.002714e+02	4.002852e+02	4.003011e+02	4.003188e+02	4.003383e+02	4.003593e+02	4.003816e+02	4.004051e+02	4.004295e+02	4.004547e+02	4.004806e+02	4.005069e+02	4.005336e+02	4.005605e+02	4.005874e+02	4.006141e+02	4.006405e+02	4.006663e+02	4.006912e+02	4.007148e+02	4.007369e+02	4.007571e+02	4.007749e+02	4.007901e+02	4.008024e+02	4.008117e+02	4.008177e+02	4.008206e+02	4.008205e+02	4.008176e+02	4.008122e+02	4.008048e+02	4.007959e+02	4.007859e+02	4.007753e+02	4.007648e+02	4.007546e+02	4.007454e+02	4.007373e+02	4.007308e+02	4.007260e+02	4.007229e+02	4.007216e+02	4.007218e+02	4.007232e+02	4.007252e+02	4.007273e+02	4.007287e+02	4.007284e+02	4.007257e+02	4.007195e+02	4.007090e+02	4.006935e+02	4.006726e+02	4.006458e+02	4.006132e+02	4.005750e+02	4.005314e+02	4.004832e+02	4.004308e+02	4.003751e+02	4.003167e+02	4.002563e+02	4.001943e+02	4.001311e+02	4.000670e+02	4.000022e+02	3.999367e+02	3.998706e+02	3.998037e+02	3.997361e+02	3.996676e+02	3.995982e+02	3.995278e+02	3.994564e+02	3.993840e+02	3.993106e+02	3.992362e+02	3.991609e+02	3.990848e+02	3.990079e+02	3.989304e+02	3.988523e+02	3.987737e+02	3.986948e+02	3.986156e+02	3.985363e+02	3.984570e+02	3.983777e+02	3.982986e+02	3.982198e+02	3.981413e+02	3.980631e+02	3.979855e+02	3.979084e+02	3.978320e+02	3.977562e+02	3.976811e+02	3.976068e+02	3.975333e+02	3.974606e+02	3.973889e+02	3.973180e+02	3.972481e+02	3.971791e+02	3.971111e+02	3.970441e+02	3.969780e+02	3.969130e+02	3.968490e+02	3.967860e+02	3.967241e+02	3.966632e+02	3.966033e+02	3.965444e+02	3.964866e+02	3.964298e+02	3.963740e+02	3.963192e+02	3.962654e+02	3.962127e+02	3.961609e+02	3.961102e+02	3.960604e+02	3.960115e+02	3.959637e+02	3.959167e+02	3.958708e+02	3.958257e+02	3.957816e+02	3.957383e+02	3.956960e+02	3.956545e+02	3.956139e+02	3.955742e+02	3.955353e+02	3.954973e+02	3.954601e+02	3.954237e+02	3.953882e+02	3.953534e+02	3.953194e+02	3.952862e+02	3.952538e+02	3.952221e+02	3.951912e+02	3.951611e+02	3.951316e+02	3.951029e+02	3.950750e+02	3.950477e+02	3.950211e+02	3.949953e+02	3.949701e+02	3.949456e+02	3.949218e+02	3.948987e+02	3.948762e+02	3.948544e+02	3.948333e+02	3.948128e+02	3.947930e+02	3.947739e+02	3.947554e+02	3.947375e+02	3.947203e+02	3.947037e+02	3.946877e+02	3.946724e+02	3.946577e+02	3.946436e+02	3.946301e+02	3.946173e+02	3.946052e+02	3.945936e+02	3.945828e+02	3.945726e+02	3.945631e+02	3.945544e+02	3.945464e+02	3.945393e+02	3.945330e+02	3.945276e+02	3.945231e+02	3.945196e+02	3.945172e+02	3.945157e+02	3.945153e+02	3.945157e+02	3.945169e+02	3.945188e+02	3.945214e+02	
SCALARS Residual_1 double 1
LOOKUP_TABLE default
2.127203e-12	2.361554e-12	4.265812e-12	4.265688e-12	4.263461e-12	4.271975e-12	4.274772e-12	4.238203e-12	4.234758e-12	4.266029e-12	4.282821e-12	4.285659e-12	4.315494e-12	4.299923e-12	4.119025e-12	4.549863e-12	4.274061e-12	4.356917e-12	4.234517e-12	4.233480e-12	4.286986e-12	4.266800e-12	4.206090e-12	3.850324e-12	3.882026e-12	4.097506e-12	4.337597e-12	4.459374e-12	4.477100e-12	4.524508e-12	4.476439e-12	4.402456e-12	4.316212e-12	4.663465e-12	4.360783e-12	4.525038e-12	4.381410e-12	4.359494e-12	4.403819e-12	4.449416e-12	4.465133e-12	4.457375e-12	4.450610e-12	4.463738e-12	4.481557e-12	4.492989e-12	4.503389e-12	4.503999e-12	4.281134e-12	4.700318e-12	4.421231e-12	4.507778e-12	4.408933e-12	4.418370e-12	4.481940e-12	4.524161e-12	4.561238e-12	4.587134e-12	4.604695e-12	4.630526e-12	4.652880e-12	4.635293e-12	4.644674e-12	4.654865e-12	4.458694e-12	4.812575e-12	4.573631e-12	4.622301e-12	4.531035e-12	4.484438e-12	4.370695e-12	4.298380e-12	4.339541e-12	4.403109e-12	4.420342e-12	4.419094e-12	4.432215e-12	4.440089e-12	4.426163e-12	4.373399e-12	4.350793e-12	4.240134e-12	4.035429e-12	3.894745e-12	4.004032e-12	4.480428e-12	4.260419e-12	4.255456e-12	4.140792e-12	4.105567e-12	4.164077e-12	4.179786e-12	4.154045e-12	4.135106e-12	4.116558e-12	4.063422e-12	3.985955e-12	3.957255e-12	3.971417e-12	3.752067e-12	4.010810e-12	3.703847e-12	3.643416e-12	3.612009e-12	3.597256e-12	3.581211e-12	3.566882e-12	3.551304e-12	3.535388e-12	3.519176e-12	3.502430e-12	3.485859e-12	3.465949e-12	3.457852e-12	3.449743e-12	3.440102e-12	3.432009e-12	3.423279e-12	3.416000e-12	3.411341e-12	3.411040e-12	3.402498e-12	3.350407e-12	3.314450e-12	3.063847e-12	3.177635e-12	3.341813e-12	3.411119e-12	3.409265e-12	2.982578e-12	3.797444e-12	3.400675e-12	3.702459e-12	3.780590e-12	3.677642e-12	3.714810e-12	3.821159e-12	3.831973e-12	3.792077e-12	3.780172e-12	3.810645e-12	3.823137e-12	3.770070e-12	3.722403e-12	3.738658e-12	3.663997e-12	3.321676e-12	2.926402e-12	2.840589e-12	2.453010e-12	2.479124e-12	2.057261e-12	3.125812e-12	3.670297e-12	3.633646e-12	3.644803e-12	3.782985e-12	3.814436e-12	3.777043e-12	3.783700e-12	3.806463e-12	3.784537e-12	3.778836e-12	3.827317e-12	3.779807e-12	3.710489e-12	3.621731e-12	3.945745e-12	3.646069e-12	3.821577e-12	3.699007e-12	3.628999e-12	3.656598e-12	3.702891e-12	3.715490e-12	3.708666e-12	3.714903e-12	3.728842e-12	3.718878e-12	3.716112e-12	3.754747e-12	3.749676e-12	3.418269e-12	3.530086e-12	3.740413e-12	3.646840e-12	3.725084e-12	3.770421e-12	3.714965e-12	3.713466e-12	3.736160e-12	3.723182e-12	3.703259e-12	3.702958e-12	3.721547e-12	3.760105e-12	3.767340e-12	3.767228e-12	3.780323e-12	3.785086e-12	